TITLE = "Data"
variables = X,Y,U,V,Velocity,T
Zone t="data"
I=101,J=101,F=POINT
0	0	1.24174e-08	1.24174e-08	1.75608e-08	1
1	0	1.73829e-08	5.4632e-08	5.73308e-08	0.934601
2	0	1.24162e-08	8.69133e-08	8.77957e-08	0.869566
3	0	2.48319e-09	9.18782e-08	9.19118e-08	0.805649
4	0	-2.97984e-08	3.7248e-08	4.77007e-08	0.743888
5	0	2.48315e-09	1.48989e-08	1.51044e-08	0.685317
6	0	-1.48988e-08	2.23482e-08	2.68592e-08	0.63081
7	0	-2.48308e-08	2.73139e-08	3.69136e-08	0.580985
8	0	-1.73814e-08	7.44915e-09	1.89103e-08	0.536171
9	0	2.7313e-08	-8.93882e-08	9.34679e-08	0.49642
10	0	1.24149e-08	-5.46254e-08	5.60184e-08	0.461565
11	0	-1.48976e-08	7.4488e-09	1.6656e-08	0.431286
12	0	-4.96581e-09	1.24145e-08	1.33709e-08	0.405166
13	0	1.24144e-08	3.47602e-08	3.69106e-08	0.382748
14	0	1.73799e-08	-2.48285e-09	1.75564e-08	0.363571
15	0	3.97252e-08	2.48282e-08	4.68458e-08	0.347196
16	0	-4.96561e-09	1.34071e-07	1.34163e-07	0.333219
17	0	-3.97245e-08	9.18629e-08	1.00084e-07	0.321282
18	0	-3.97243e-08	7.20002e-08	8.22317e-08	0.311069
19	0	1.48965e-08	4.46895e-08	4.71069e-08	0.30231
20	0	-1.98619e-08	2.48274e-08	3.17946e-08	0.294775
21	0	-1.98618e-08	-3.97236e-08	4.44123e-08	0.288267
22	0	2.48272e-08	-6.9516e-08	7.38164e-08	0.282624
23	0	7.44812e-09	-1.21653e-07	1.2188e-07	0.277708
24	0	2.97924e-08	-2.73097e-08	4.04154e-08	0.273403
25	0	-2.48269e-09	1.48962e-08	1.51016e-08	0.269613
26	0	-1.73788e-08	1.09238e-07	1.10612e-07	0.266257
27	0	-1.98614e-08	2.48268e-08	3.17938e-08	0.263267
28	0	7.44803e-09	0	7.44803e-09	0.260587
29	0	0	7.44801e-08	7.44801e-08	0.258169
30	0	-2.9792e-08	1.98613e-08	3.58055e-08	0.255972
31	0	5.71013e-08	-2.73093e-08	6.32958e-08	0.253962
32	0	9.93064e-09	7.94452e-08	8.00634e-08	0.252111
33	0	1.73786e-08	7.94451e-08	8.13236e-08	0.250392
34	0	-7.44797e-09	2.73092e-08	2.83066e-08	0.248784
35	0	4.96531e-09	5.7101e-08	5.73165e-08	0.247269
36	0	-2.48265e-09	-5.21357e-08	5.21948e-08	0.24583
37	0	-1.98612e-08	3.97224e-08	4.4411e-08	0.244453
38	0	1.73785e-08	1.98612e-08	2.63909e-08	0.243126
39	0	1.24132e-08	-2.48265e-09	1.26591e-08	0.241836
40	0	2.73091e-08	1.73785e-08	3.23697e-08	0.240575
41	0	-4.71703e-08	7.44793e-09	4.77546e-08	0.239331
42	0	9.93057e-09	-7.19967e-08	7.26783e-08	0.238098
43	0	1.48959e-08	-3.72396e-08	4.01083e-08	0.236867
44	0	-1.98611e-08	2.23438e-08	2.9895e-08	0.235631
45	0	0	-2.97917e-08	2.97917e-08	0.234382
46	0	-1.48958e-08	-4.46875e-08	4.71048e-08	0.233115
47	0	-1.48958e-08	2.23437e-08	2.68538e-08	0.231823
48	0	-2.23437e-08	1.24132e-08	2.55603e-08	0.2305
49	0	-2.23437e-08	-4.46874e-08	4.99621e-08	0.22914
50	0	1.48958e-08	-7.69616e-08	7.83899e-08	0.227739
51	0	2.48263e-08	-9.93053e-08	1.02362e-07	0.22629
52	0	2.23437e-08	2.48263e-09	2.24812e-08	0.22479
53	0	-4.96526e-09	-1.24131e-08	1.33694e-08	0.223232
54	0	1.48958e-08	-2.23436e-08	2.68537e-08	0.221612
55	0	0	4.96525e-09	4.96525e-09	0.219926
56	0	2.48262e-09	-1.73783e-08	1.75548e-08	0.218169
57	0	2.48262e-08	1.48957e-08	2.8952e-08	0.216336
58	0	-5.71001e-08	-2.48261e-08	6.22636e-08	0.214423
59	0	4.96521e-09	-8.93739e-08	8.95117e-08	0.212426
60	0	3.97216e-08	-9.9304e-09	4.09441e-08	0.210342
61	0	1.48956e-08	-3.22738e-08	3.55454e-08	0.208165
62	0	1.98607e-08	-6.20647e-08	6.5165e-08	0.205892
63	0	-2.48258e-09	-5.46168e-08	5.46732e-08	0.203519
64	0	2.48257e-09	0	2.48257e-09	0.201041
65	0	-2.48256e-08	-9.93026e-09	2.6738e-08	0.198455
66	0	-1.73779e-08	3.72383e-08	4.10936e-08	0.195757
67	0	-1.98603e-08	3.47556e-08	4.00298e-08	0.192943
68	0	-7.44759e-09	-3.72379e-08	3.79754e-08	0.190007
69	0	-2.97902e-08	-3.47552e-08	4.57753e-08	0.186946
70	0	-2.4825e-09	-7.4475e-08	7.45164e-08	0.183755
71	0	-2.97898e-08	-6.20621e-08	6.88414e-08	0.18043
72	0	-1.48948e-08	-1.34053e-07	1.34878e-07	0.176966
73	0	3.22718e-08	-6.20612e-08	6.99504e-08	0.173357
74	0	2.48243e-09	-3.4754e-08	3.48425e-08	0.169599
75	0	-1.2412e-08	-9.18489e-08	9.26838e-08	0.165687
76	0	-9.92952e-09	-1.0426e-07	1.04732e-07	0.161614
77	0	4.71648e-08	-1.19153e-07	1.28148e-07	0.157376
78	0	3.22703e-08	-9.92933e-09	3.37634e-08	0.152965
79	0	-4.96461e-09	5.95753e-08	5.97818e-08	0.148377
80	0	1.7376e-08	1.98582e-08	2.6387e-08	0.143604
81	0	-9.92901e-09	-5.70918e-08	5.79488e-08	0.138641
82	0	3.97156e-08	-4.96445e-09	4.00247e-08	0.13348
83	0	-1.73754e-08	-1.2411e-08	2.13527e-08	0.128114
84	0	1.24109e-08	-4.96435e-08	5.11713e-08	0.122537
85	0	2.97858e-08	4.71608e-08	5.57793e-08	0.11674
86	0	-2.97855e-08	-4.96425e-09	3.01963e-08	0.110716
87	0	2.97852e-08	-3.47494e-08	4.57677e-08	0.104457
88	0	1.98567e-08	4.46775e-08	4.88913e-08	0.0979553
89	0	-9.92826e-09	9.92826e-08	9.97778e-08	0.0912022
90	0	-1.98564e-08	5.95691e-08	6.27914e-08	0.0841905
91	0	2.48204e-09	7.69431e-08	7.69831e-08	0.0769127
92	0	-8.19067e-08	9.18348e-08	1.23054e-07	0.0693636
93	0	-1.48921e-08	3.97123e-08	4.24127e-08	0.0615389
94	0	0	-2.73021e-08	2.73021e-08	0.0534393
95	0	1.241e-08	5.95682e-08	6.08472e-08	0.0450684
96	0	0	4.964e-09	4.964e-09	0.0364397
97	0	-1.241e-08	-2.48201e-08	2.77497e-08	0.0275733
98	0	7.44601e-09	4.96401e-09	8.94899e-09	0.0185069
99	0	0	-3.72339e-08	3.72339e-08	0.00928965
100	0	0	0	0	0
0	1	-1.98661e-08	-2.73158e-08	3.3776e-08	1
1	1	-6.24607e-06	-5.92086e-06	8.60639e-06	0.934601
2	1	-0.000110111	4.88142e-05	0.000120446	0.869566
3	1	-0.000265805	3.92687e-05	0.00026869	0.805649
4	1	-0.000431744	5.38672e-05	0.000435092	0.743888
5	1	-0.000581876	3.57043e-05	0.00058297	0.685317
6	1	-0.000709009	3.86815e-05	0.000710063	0.63081
7	1	-0.00080961	2.35808e-05	0.000809953	0.580985
8	1	-0.000883254	2.13061e-05	0.000883511	0.536171
9	1	-0.000931024	9.98496e-06	0.000931077	0.49642
10	1	-0.000956842	7.67888e-06	0.000956873	0.461565
11	1	-0.000964161	5.7577e-07	0.000964162	0.431286
12	1	-0.000956825	-1.07208e-06	0.000956825	0.405166
13	1	-0.000937838	-5.28579e-06	0.000937853	0.382748
14	1	-0.00091053	-5.90104e-06	0.000910549	0.363571
15	1	-0.000877283	-7.87859e-06	0.000877318	0.347196
16	1	-0.000840393	-7.66003e-06	0.000840428	0.333219
17	1	-0.000801305	-8.36208e-06	0.000801349	0.321282
18	1	-0.000761582	-7.70934e-06	0.000761621	0.311069
19	1	-0.000722427	-7.46356e-06	0.000722466	0.30231
20	1	-0.000684407	-6.39157e-06	0.000684437	0.294775
21	1	-0.000648235	-5.72901e-06	0.00064826	0.288267
22	1	-0.000614273	-4.69679e-06	0.000614291	0.282624
23	1	-0.000582796	-3.84572e-06	0.000582808	0.277708
24	1	-0.000553725	-2.83092e-06	0.000553732	0.273403
25	1	-0.000527627	-1.89306e-06	0.00052763	0.269613
26	1	-0.000503793	-7.2943e-07	0.000503793	0.266257
27	1	-0.000482686	2.72914e-08	0.000482686	0.263267
28	1	-0.000464125	8.9565e-07	0.000464126	0.260587
29	1	-0.000447837	1.79625e-06	0.000447841	0.258169
30	1	-0.000433868	2.52318e-06	0.000433875	0.255972
31	1	-0.000422257	3.33693e-06	0.00042227	0.253962
32	1	-0.000412535	4.27473e-06	0.000412557	0.252111
33	1	-0.000404828	5.00909e-06	0.000404859	0.250392
34	1	-0.000398999	5.65661e-06	0.000399039	0.248784
35	1	-0.00039518	6.2421e-06	0.000395229	0.247269
36	1	-0.000393242	6.94172e-06	0.000393303	0.24583
37	1	-0.000392784	7.43789e-06	0.000392855	0.244453
38	1	-0.00039391	8.01098e-06	0.000393991	0.243126
39	1	-0.000396698	8.50964e-06	0.000396789	0.241836
40	1	-0.00040123	9.10753e-06	0.000401333	0.240575
41	1	-0.000407541	9.72775e-06	0.000407657	0.239331
42	1	-0.000415348	1.02239e-05	0.000415474	0.238098
43	1	-0.000424686	1.08466e-05	0.000424824	0.236867
44	1	-0.000435636	1.1452e-05	0.000435787	0.235631
45	1	-0.000448286	1.20771e-05	0.000448448	0.234382
46	1	-0.000462573	1.24939e-05	0.000462742	0.233115
47	1	-0.000478559	1.31117e-05	0.000478739	0.231823
48	1	-0.000496329	1.36847e-05	0.000496518	0.2305
49	1	-0.000515605	1.43347e-05	0.000515805	0.22914
50	1	-0.000536717	1.50045e-05	0.000536927	0.227739
51	1	-0.000559667	1.54138e-05	0.000559879	0.22629
52	1	-0.000584313	1.62648e-05	0.000584539	0.22479
53	1	-0.000610701	1.68403e-05	0.000610933	0.223232
54	1	-0.000639066	1.74729e-05	0.000639304	0.221612
55	1	-0.000669132	1.81005e-05	0.000669377	0.219926
56	1	-0.000700956	1.87802e-05	0.000701208	0.218169
57	1	-0.000734638	1.95367e-05	0.000734898	0.216336
58	1	-0.00076986	2.00849e-05	0.000770122	0.214423
59	1	-0.000806629	2.06132e-05	0.000806893	0.212426
60	1	-0.000844861	2.12085e-05	0.000845128	0.210342
61	1	-0.000884526	2.16127e-05	0.00088479	0.208165
62	1	-0.000925512	2.20219e-05	0.000925774	0.205892
63	1	-0.000967305	2.23988e-05	0.000967564	0.203519
64	1	-0.00100974	2.26615e-05	0.00100999	0.201041
65	1	-0.00105244	2.27084e-05	0.00105269	0.198455
66	1	-0.00109519	2.26014e-05	0.00109542	0.195757
67	1	-0.00113727	2.24796e-05	0.0011375	0.192943
68	1	-0.00117822	2.21493e-05	0.00117843	0.190007
69	1	-0.00121768	2.17173e-05	0.00121787	0.186946
70	1	-0.00125507	2.0881e-05	0.00125525	0.183755
71	1	-0.00128966	1.99876e-05	0.00128982	0.18043
72	1	-0.00132065	1.86031e-05	0.00132078	0.176966
73	1	-0.00134737	1.73377e-05	0.00134748	0.173357
74	1	-0.00136908	1.56804e-05	0.00136917	0.169599
75	1	-0.00138509	1.37132e-05	0.00138516	0.165687
76	1	-0.00139449	1.14757e-05	0.00139453	0.161614
77	1	-0.00139659	8.96801e-06	0.00139662	0.157376
78	1	-0.0013906	6.39101e-06	0.00139062	0.152965
79	1	-0.0013761	3.72239e-06	0.0013761	0.148377
80	1	-0.00135265	6.15006e-07	0.00135265	0.143604
81	1	-0.00131977	-2.22685e-06	0.00131977	0.138641
82	1	-0.00127754	-5.40328e-06	0.00127756	0.13348
83	1	-0.00122571	-8.24228e-06	0.00122574	0.128114
84	1	-0.00116459	-1.13737e-05	0.00116464	0.122537
85	1	-0.00109453	-1.36743e-05	0.00109461	0.11674
86	1	-0.00101636	-1.64211e-05	0.00101649	0.110716
87	1	-0.000931232	-1.79876e-05	0.000931406	0.104457
88	1	-0.000840233	-1.98913e-05	0.000840468	0.0979553
89	1	-0.000744727	-2.02057e-05	0.000745001	0.0912022
90	1	-0.000646548	-2.1611e-05	0.000646909	0.0841905
91	1	-0.000547436	-2.0438e-05	0.000547818	0.0769127
92	1	-0.000449671	-2.07179e-05	0.000450148	0.0693636
93	1	-0.000355057	-1.75197e-05	0.000355489	0.0615389
94	1	-0.000266606	-1.69494e-05	0.000267145	0.0534393
95	1	-0.000186024	-1.1131e-05	0.000186356	0.0450684
96	1	-0.000116895	-9.66337e-06	0.000117294	0.0364397
97	1	-6.05437e-05	-1.02881e-06	6.05524e-05	0.0275733
98	1	-2.25695e-05	1.8122e-06	2.26421e-05	0.0185069
99	1	-1.37589e-06	1.23632e-05	1.24395e-05	0.00928965
100	1	6.95043e-08	-2.23407e-08	7.30065e-08	0
0	2	-5.46287e-08	-4.22131e-08	6.90379e-08	1
1	2	-6.04924e-05	9.86189e-05	0.000115694	0.934414
2	2	-0.000312667	0.000294761	0.000429703	0.869127
3	2	-0.000689414	0.000334976	0.000766486	0.804937
4	2	-0.00111506	0.000357467	0.00117096	0.74289
5	2	-0.00152405	0.00030184	0.00155365	0.684042
6	2	-0.00187975	0.000261078	0.0018978	0.62932
7	2	-0.00216321	0.000191968	0.00217171	0.579355
8	2	-0.00237583	0.00014199	0.00238007	0.534483
9	2	-0.00252016	8.37289e-05	0.00252155	0.494746
10	2	-0.00260457	4.36636e-05	0.00260494	0.459963
11	2	-0.00263694	3.41495e-06	0.00263694	0.429795
12	2	-0.00262834	-2.28045e-05	0.00262844	0.40381
13	2	-0.00258707	-4.68981e-05	0.00258749	0.381539
14	2	-0.00252155	-6.11486e-05	0.00252229	0.362509
15	2	-0.00243851	-7.30832e-05	0.0024396	0.346276
16	2	-0.00234413	-7.83596e-05	0.00234544	0.33243
17	2	-0.00224313	-8.19735e-05	0.00224463	0.320612
18	2	-0.0021396	-8.17264e-05	0.00214116	0.310505
19	2	-0.00203637	-8.00874e-05	0.00203794	0.30184
20	2	-0.00193561	-7.62651e-05	0.00193711	0.294386
21	2	-0.00183956	-7.19343e-05	0.00184097	0.28795
22	2	-0.00174871	-6.66163e-05	0.00174998	0.282368
23	2	-0.00166438	-6.10751e-05	0.0016655	0.277505
24	2	-0.00158648	-5.51792e-05	0.00158744	0.273245
25	2	-0.00151569	-4.92463e-05	0.00151649	0.269494
26	2	-0.00145194	-4.32044e-05	0.00145258	0.266172
27	2	-0.00139502	-3.75471e-05	0.00139553	0.263211
28	2	-0.00134494	-3.19942e-05	0.00134532	0.260556
29	2	-0.0013015	-2.67911e-05	0.00130178	0.258159
30	2	-0.00126407	-2.17419e-05	0.00126426	0.255981
31	2	-0.00123281	-1.66755e-05	0.00123292	0.253988
32	2	-0.00120735	-1.1944e-05	0.00120741	0.25215
33	2	-0.00118733	-7.35641e-06	0.00118735	0.250444
34	2	-0.00117276	-3.08398e-06	0.00117277	0.248847
35	2	-0.00116337	9.52731e-07	0.00116337	0.247341
36	2	-0.00115885	4.98446e-06	0.00115886	0.245911
37	2	-0.00115922	8.7631e-06	0.00115925	0.244542
38	2	-0.00116424	1.2574e-05	0.00116431	0.243221
39	2	-0.00117402	1.63898e-05	0.00117414	0.241938
40	2	-0.00118858	2.0166e-05	0.00118875	0.240682
41	2	-0.00120769	2.38255e-05	0.00120792	0.239444
42	2	-0.00123132	2.75321e-05	0.00123163	0.238215
43	2	-0.00125944	3.12437e-05	0.00125982	0.236988
44	2	-0.00129237	3.50645e-05	0.00129284	0.235756
45	2	-0.00132977	3.88232e-05	0.00133034	0.234511
46	2	-0.00137194	4.25397e-05	0.00137259	0.233247
47	2	-0.00141896	4.63034e-05	0.00141972	0.231958
48	2	-0.00147083	5.02333e-05	0.00147169	0.230638
49	2	-0.00152744	5.43021e-05	0.0015284	0.229282
50	2	-0.00158914	5.83336e-05	0.00159021	0.227884
51	2	-0.00165569	6.24346e-05	0.00165687	0.226438
52	2	-0.00172738	6.65406e-05	0.00172866	0.22494
53	2	-0.00180394	7.05844e-05	0.00180532	0.223386
54	2	-0.00188556	7.47721e-05	0.00188704	0.221769
55	2	-0.00197222	7.88456e-05	0.00197379	0.220086
56	2	-0.00206376	8.28794e-05	0.00206542	0.218332
57	2	-0.00216006	8.68065e-05	0.0021618	0.216503
58	2	-0.002261	9.06392e-05	0.00226281	0.214595
59	2	-0.00236597	9.40475e-05	0.00236784	0.212602
60	2	-0.00247495	9.71555e-05	0.00247686	0.210523
61	2	-0.00258734	9.9946e-05	0.00258927	0.208351
62	2	-0.00270269	0.000102094	0.00270462	0.206084
63	2	-0.00282018	0.000103852	0.00282209	0.203717
64	2	-0.0029389	0.000104771	0.00294077	0.201246
65	2	-0.00305802	0.000104869	0.00305982	0.198668
66	2	-0.00317651	0.000104062	0.00317821	0.195978
67	2	-0.00329274	0.000102321	0.00329433	0.193172
68	2	-0.00340557	9.94373e-05	0.00340702	0.190246
69	2	-0.00351331	9.50102e-05	0.00351459	0.187194
70	2	-0.00361444	8.9256e-05	0.00361554	0.184014
71	2	-0.00370683	8.20358e-05	0.00370774	0.1807
72	2	-0.00378877	7.29875e-05	0.00378947	0.177246
73	2	-0.0038581	6.24017e-05	0.00385861	0.173649
74	2	-0.00391279	5.01122e-05	0.00391311	0.169903
75	2	-0.0039508	3.61117e-05	0.00395096	0.166002
76	2	-0.00397013	2.01376e-05	0.00397018	0.16194
77	2	-0.00396854	3.03085e-06	0.00396854	0.157712
78	2	-0.00394444	-1.56821e-05	0.00394447	0.153311
79	2	-0.00389637	-3.53017e-05	0.00389653	0.148732
80	2	-0.00382333	-5.60609e-05	0.00382374	0.143967
81	2	-0.00372429	-7.70123e-05	0.00372508	0.13901
82	2	-0.00359891	-9.86195e-05	0.00360026	0.133853
83	2	-0.0034474	-0.000119479	0.00344947	0.12849
84	2	-0.00327063	-0.000139983	0.00327362	0.122913
85	2	-0.00306988	-0.000158388	0.00307396	0.117115
86	2	-0.00284739	-0.000175555	0.0028528	0.111087
87	2	-0.00260573	-0.000189267	0.0026126	0.104821
88	2	-0.00234857	-0.000201137	0.00235717	0.0983098
89	2	-0.00207966	-0.000207967	0.00209003	0.091545
90	2	-0.00180397	-0.000212818	0.00181648	0.0845188
91	2	-0.00152622	-0.000210836	0.00154071	0.0772241
92	2	-0.00125301	-0.000207162	0.00127002	0.0696551
93	2	-0.000989242	-0.000194213	0.00100813	0.0618078
94	2	-0.0007427	-0.000180873	0.000764407	0.0536823
95	2	-0.000518938	-0.000155408	0.000541709	0.0452821
96	2	-0.000326919	-0.000131533	0.000352387	0.0366201
97	2	-0.000173906	-9.05479e-05	0.000196067	0.027716
98	2	-6.8852e-05	-5.61953e-05	8.88736e-05	0.0186078
99	2	-1.1551e-05	-8.62047e-06	1.44131e-05	0.00934102
100	2	3.47496e-08	2.97854e-08	4.57679e-08	0
0	3	-5.21451e-08	3.47634e-08	6.26706e-08	1
1	3	-5.54965e-05	0.000268954	0.00027462	0.934024
2	3	-0.000383228	0.000687066	0.000786717	0.868292
3	3	-0.0009181	0.000852231	0.00125268	0.803563
4	3	-0.00151595	0.00087116	0.00174843	0.740924
5	3	-0.00209646	0.000785881	0.00223891	0.681512
6	3	-0.00261338	0.000659897	0.0026954	0.626324
7	3	-0.00304224	0.000512234	0.00308506	0.576039
8	3	-0.00337303	0.000370309	0.0033933	0.531003
9	3	-0.00360863	0.000237364	0.00361643	0.491252
10	3	-0.00375814	0.000124372	0.0037602	0.456578
11	3	-0.00383336	2.89926e-05	0.00383347	0.42661
12	3	-0.00384688	-4.57933e-05	0.00384715	0.400884
13	3	-0.00381121	-0.000104482	0.00381264	0.378903
14	3	-0.00373774	-0.0001467	0.00374062	0.360174
15	3	-0.00363656	-0.000176267	0.00364083	0.344234
16	3	-0.00351622	-0.000194299	0.00352158	0.330668
17	3	-0.00338389	-0.000203798	0.00339002	0.319107
18	3	-0.0032455	-0.000206008	0.00325203	0.309233
19	3	-0.00310553	-0.000202978	0.00311216	0.300775
20	3	-0.00296777	-0.000195675	0.00297421	0.293505
21	3	-0.00283493	-0.000185526	0.002841	0.28723
22	3	-0.00270863	-0.000173316	0.00271417	0.281789
23	3	-0.00259044	-0.000159978	0.00259537	0.277048
24	3	-0.00248083	-0.000145922	0.00248512	0.272894
25	3	-0.00238115	-0.000131634	0.00238478	0.269235
26	3	-0.00229083	-0.000117282	0.00229383	0.265992
27	3	-0.00221044	-0.000102882	0.00221284	0.263101
28	3	-0.00213957	-8.91407e-05	0.00214143	0.260506
29	3	-0.00207808	-7.59849e-05	0.00207947	0.258162
30	3	-0.00202567	-6.3251e-05	0.00202666	0.256029
31	3	-0.00198225	-5.09167e-05	0.00198291	0.254076
32	3	-0.00194736	-3.91532e-05	0.00194775	0.252273
33	3	-0.00192076	-2.78091e-05	0.00192096	0.250598
34	3	-0.00190201	-1.69217e-05	0.00190208	0.249029
35	3	-0.00189117	-6.50316e-06	0.00189118	0.247548
36	3	-0.00188791	3.62499e-06	0.00188792	0.246139
37	3	-0.00189204	1.3773e-05	0.00189209	0.24479
38	3	-0.00190335	2.36628e-05	0.0019035	0.243487
39	3	-0.00192175	3.34361e-05	0.00192204	0.24222
40	3	-0.00194749	4.31001e-05	0.00194796	0.240979
41	3	-0.00198036	5.27145e-05	0.00198106	0.239754
42	3	-0.00202049	6.23115e-05	0.00202145	0.238538
43	3	-0.00206741	7.18937e-05	0.00206866	0.237324
44	3	-0.00212161	8.14236e-05	0.00212317	0.236102
45	3	-0.00218289	9.11918e-05	0.00218479	0.234868
46	3	-0.00225158	0.000101091	0.00225385	0.233615
47	3	-0.00232748	0.00011107	0.00233013	0.232336
48	3	-0.00241107	0.000121243	0.00241412	0.231026
49	3	-0.00250177	0.000131507	0.00250522	0.229679
50	3	-0.00260026	0.000141891	0.00260413	0.228291
51	3	-0.00270613	0.000152336	0.00271041	0.226856
52	3	-0.0028198	0.000162786	0.0028245	0.225369
53	3	-0.0029408	0.000173184	0.0029459	0.223825
54	3	-0.00306942	0.000183651	0.00307491	0.222221
55	3	-0.00320527	0.00019391	0.00321113	0.22055
56	3	-0.00334824	0.000203963	0.00335444	0.21881
57	3	-0.00349812	0.000213459	0.00350463	0.216996
58	3	-0.00365447	0.000222676	0.00366125	0.215103
59	3	-0.00381656	0.00023108	0.00382355	0.213128
60	3	-0.00398391	0.000238562	0.00399104	0.211068
61	3	-0.00415569	0.000244902	0.0041629	0.208917
62	3	-0.00433094	0.000249934	0.00433815	0.206672
63	3	-0.00450832	0.000253433	0.00451544	0.20433
64	3	-0.00468667	0.000254979	0.0046936	0.201886
65	3	-0.00486426	0.000254314	0.00487091	0.199336
66	3	-0.00503946	0.000251182	0.00504571	0.196677
67	3	-0.00520996	0.000245322	0.00521573	0.193903
68	3	-0.00537399	0.000236445	0.00537919	0.191012
69	3	-0.00552883	0.000224144	0.00553338	0.187997
70	3	-0.00567206	0.00020807	0.00567588	0.184855
71	3	-0.00580074	0.000188024	0.00580378	0.18158
72	3	-0.00591192	0.000163844	0.00591419	0.178167
73	3	-0.00600295	0.000135445	0.00600448	0.174611
74	3	-0.00607081	0.00010281	0.00607168	0.170905
75	3	-0.00611233	6.56467e-05	0.00611268	0.167044
76	3	-0.00612478	2.45267e-05	0.00612482	0.163021
77	3	-0.00610534	-2.02672e-05	0.00610538	0.15883
78	3	-0.00605196	-6.83675e-05	0.00605234	0.154463
79	3	-0.00596258	-0.000119007	0.00596377	0.149913
80	3	-0.00583595	-0.000171792	0.00583848	0.145173
81	3	-0.005671	-0.000225717	0.00567549	0.140235
82	3	-0.0054676	-0.000279808	0.00547476	0.135091
83	3	-0.00522617	-0.000332916	0.00523677	0.129734
84	3	-0.00494838	-0.00038373	0.00496324	0.124155
85	3	-0.00463646	-0.000430638	0.00465641	0.118345
86	3	-0.0042936	-0.000472657	0.00431954	0.112298
87	3	-0.00392393	-0.000507965	0.00395667	0.106003
88	3	-0.00353265	-0.000535969	0.00357308	0.0994544
89	3	-0.00312567	-0.000554635	0.0031745	0.0926424
90	3	-0.00270991	-0.000563883	0.00276795	0.0855601
91	3	-0.00229266	-0.000560971	0.00236029	0.0782005
92	3	-0.00188245	-0.000546961	0.00196031	0.070558
93	3	-0.00148781	-0.000518395	0.00157554	0.0626289
94	3	-0.00111853	-0.000478044	0.0012164	0.0544131
95	3	-0.000784374	-0.000420326	0.000889897	0.0459139
96	3	-0.000496572	-0.000350119	0.000607591	0.0371442
97	3	-0.00026456	-0.000257548	0.00036922	0.0281226
98	3	-9.97101e-05	-0.000159647	0.000188226	0.0188887
99	3	-1.35852e-05	-4.53674e-05	4.73577e-05	0.00948492
100	3	-5.95723e-08	4.21971e-08	7.30031e-08	0
0	4	5.21437e-08	0	5.21437e-08	1
1	4	-7.18307e-05	0.000462112	0.000467661	0.933591
2	4	-0.000437725	0.00116517	0.00124468	0.867369
3	4	-0.00102366	0.00147712	0.00179715	0.802063
4	4	-0.00170343	0.00151825	0.00228183	0.738777
5	4	-0.0023894	0.00140134	0.00277002	0.678743
6	4	-0.00301526	0.00119028	0.00324169	0.623017
7	4	-0.0035486	0.000946536	0.00367267	0.572334
8	4	-0.00397405	0.00069754	0.00403481	0.527064
9	4	-0.00429249	0.000468284	0.00431796	0.487242
10	4	-0.00451012	0.000264858	0.00451789	0.452639
11	4	-0.00463872	9.50198e-05	0.0046397	0.422853
12	4	-0.00469102	-4.33619e-05	0.00469122	0.39739
13	4	-0.00468164	-0.000150659	0.00468406	0.37572
14	4	-0.00462349	-0.000231282	0.00462927	0.357324
15	4	-0.00452874	-0.000287901	0.00453788	0.341723
16	4	-0.00440713	-0.000325126	0.0044191	0.328484
17	4	-0.00426791	-0.000345735	0.00428189	0.317232
18	4	-0.00411814	-0.000353619	0.00413329	0.307644
19	4	-0.00396405	-0.000351158	0.00397957	0.299446
20	4	-0.00380985	-0.00034127	0.00382511	0.292408
21	4	-0.00365958	-0.000325527	0.00367403	0.286341
22	4	-0.00351538	-0.00030591	0.00352866	0.281083
23	4	-0.00337955	-0.000283469	0.00339142	0.276503
24	4	-0.00325314	-0.000259784	0.0032635	0.272492
25	4	-0.0031373	-0.000235041	0.00314609	0.268957
26	4	-0.00303243	-0.000210154	0.0030397	0.265824
27	4	-0.00293884	-0.000185344	0.00294468	0.263028
28	4	-0.00285658	-0.000161254	0.00286113	0.260517
29	4	-0.00278545	-0.000137828	0.00278885	0.258246
30	4	-0.00272512	-0.000115076	0.00272755	0.256179
31	4	-0.00267597	-9.3168e-05	0.00267759	0.254283
32	4	-0.00263718	-7.19179e-05	0.00263816	0.252531
33	4	-0.00260854	-5.14645e-05	0.00260905	0.250901
34	4	-0.00258987	-3.16935e-05	0.00259006	0.249372
35	4	-0.00258093	-1.2461e-05	0.00258096	0.247927
36	4	-0.00258176	6.2553e-06	0.00258177	0.246552
37	4	-0.00259189	2.49666e-05	0.00259202	0.245232
38	4	-0.00261136	4.31046e-05	0.00261171	0.243957
39	4	-0.00263995	6.10317e-05	0.00264065	0.242715
40	4	-0.00267792	7.879e-05	0.00267908	0.241498
41	4	-0.00272503	9.65681e-05	0.00272674	0.240296
42	4	-0.00278139	0.000114215	0.00278373	0.239101
43	4	-0.00284667	0.000132094	0.00284974	0.237906
44	4	-0.00292129	0.00014989	0.00292513	0.236704
45	4	-0.00300509	0.000167923	0.00300978	0.235488
46	4	-0.00309831	0.000186309	0.00310391	0.234254
47	4	-0.00320076	0.000204802	0.00320731	0.232994
48	4	-0.00331295	0.000223374	0.00332047	0.231703
49	4	-0.00343439	0.000242362	0.00344293	0.230376
50	4	-0.00356561	0.000261222	0.00357517	0.229008
51	4	-0.0037062	0.000280389	0.00371679	0.227593
52	4	-0.00385646	0.000299335	0.00386806	0.226129
53	4	-0.00401586	0.000318238	0.00402845	0.224609
54	4	-0.00418443	0.000336906	0.00419797	0.22303
55	4	-0.00436179	0.000355199	0.00437623	0.221387
56	4	-0.00454797	0.000372926	0.00456324	0.219676
57	4	-0.00474189	0.000389735	0.00475788	0.217895
58	4	-0.00494346	0.000405566	0.00496007	0.216037
59	4	-0.00515125	0.000419878	0.00516834	0.214101
60	4	-0.00536471	0.000432358	0.0053821	0.212082
61	4	-0.00558259	0.000442511	0.0056001	0.209977
62	4	-0.0058035	0.0004502	0.00582094	0.207781
63	4	-0.00602574	0.000454739	0.00604288	0.205492
64	4	-0.00624757	0.000455614	0.00626416	0.203106
65	4	-0.0064666	0.000452459	0.00648241	0.200618
66	4	-0.00668066	0.000444686	0.00669544	0.198024
67	4	-0.0068869	0.000431521	0.00690041	0.195321
68	4	-0.00708308	0.000412712	0.0070951	0.192503
69	4	-0.0072656	0.000387602	0.00727594	0.189565
70	4	-0.00743141	0.000355746	0.00743992	0.186503
71	4	-0.00757694	0.000316853	0.00758356	0.183311
72	4	-0.00769891	0.000270476	0.00770366	0.179982
73	4	-0.00779368	0.00021661	0.00779669	0.176509
74	4	-0.00785793	0.000155117	0.00785947	0.172888
75	4	-0.00788806	8.61011e-05	0.00788853	0.169108
76	4	-0.00788066	1.00861e-05	0.00788067	0.165163
77	4	-0.00783299	-7.21192e-05	0.00783332	0.161044
78	4	-0.00774279	-0.000159822	0.00774444	0.156743
79	4	-0.00760793	-0.000251928	0.0076121	0.152251
80	4	-0.00742704	-0.000347062	0.00743515	0.147558
81	4	-0.0071994	-0.000443882	0.00721308	0.142654
82	4	-0.00692528	-0.000540501	0.00694634	0.137531
83	4	-0.00660567	-0.000634836	0.00663611	0.132179
84	4	-0.00624259	-0.000724564	0.0062845	0.126588
85	4	-0.00583911	-0.000807437	0.00589467	0.120749
86	4	-0.0053996	-0.000880874	0.00547098	0.114653
87	4	-0.00492896	-0.000942845	0.00501832	0.108292
88	4	-0.00443369	-0.000990702	0.00454303	0.101657
89	4	-0.00392097	-0.0010226	0.00405212	0.0947401
90	4	-0.00339914	-0.00103642	0.00355364	0.0875352
91	4	-0.00287723	-0.00103037	0.00305616	0.0800361
92	4	-0.0023653	-0.00100268	0.00256905	0.0722385
93	4	-0.00187376	-0.000951445	0.00210148	0.0641397
94	4	-0.00141411	-0.000876376	0.00166365	0.0557409
95	4	-0.000997725	-0.000773976	0.00126273	0.0470465
96	4	-0.000637178	-0.000646065	0.000907411	0.0380704
97	4	-0.000345502	-0.000486107	0.000596382	0.0288304
98	4	-0.000135922	-0.000306651	0.000335425	0.0193685
99	4	-2.15164e-05	-9.89378e-05	0.00010125	0.00972794
100	4	-4.96451e-08	0	4.96451e-08	0
0	5	1.24151e-08	-2.48302e-09	1.2661e-08	1
1	5	-6.1605e-05	0.000660221	0.000663089	0.933204
2	5	-0.000430744	0.00167911	0.00173348	0.866558
3	5	-0.00105324	0.0021545	0.00239817	0.800741
4	5	-0.0017826	0.002246	0.00286743	0.736901
5	5	-0.00252581	0.00209957	0.00328449	0.676309
6	5	-0.00321823	0.00181233	0.00369345	0.620073
7	5	-0.00382432	0.00146629	0.00409578	0.56898
8	5	-0.00432242	0.00110635	0.00446176	0.523434
9	5	-0.00470832	0.000767453	0.00477046	0.48348
10	5	-0.00498564	0.000464117	0.00500719	0.448881
11	5	-0.0051655	0.000206499	0.00516963	0.419215
12	5	-0.0052608	-5.30864e-06	0.00526081	0.393959
13	5	-0.00528592	-0.000172127	0.00528872	0.372555
14	5	-0.00525423	-0.00029924	0.00526275	0.354462
15	5	-0.0051789	-0.000390756	0.00519362	0.339178
16	5	-0.00507075	-0.000452584	0.0050909	0.326258
17	5	-0.00493998	-0.000489383	0.00496417	0.315314
18	5	-0.0047947	-0.000506247	0.00482136	0.306017
19	5	-0.00464193	-0.000507252	0.00466956	0.298089
20	5	-0.00448665	-0.000496233	0.00451401	0.2913
21	5	-0.0043332	-0.000476106	0.00435927	0.285456
22	5	-0.00418472	-0.000449557	0.0042088	0.2804
23	5	-0.00404398	-0.000418379	0.00406557	0.276
24	5	-0.00391233	-0.000384367	0.00393117	0.272149
25	5	-0.00379127	-0.000348706	0.00380728	0.268757
26	5	-0.00368145	-0.000312294	0.00369467	0.26575
27	5	-0.00358363	-0.000275875	0.00359423	0.263066
28	5	-0.0034977	-0.000239977	0.00350592	0.260654
29	5	-0.003424	-0.000204916	0.00343013	0.258471
30	5	-0.00336231	-0.000170711	0.00336664	0.256482
31	5	-0.00331261	-0.00013752	0.00331546	0.254656
32	5	-0.00327467	-0.000105216	0.00327636	0.252966
33	5	-0.00324829	-7.39009e-05	0.00324913	0.251392
34	5	-0.00323316	-4.33722e-05	0.00323345	0.249914
35	5	-0.00322918	-1.37543e-05	0.00322921	0.248516
36	5	-0.00323634	1.52729e-05	0.00323637	0.247183
37	5	-0.00325439	4.39973e-05	0.00325469	0.245902
38	5	-0.00328348	7.22005e-05	0.00328427	0.244663
39	5	-0.00332311	0.000100133	0.00332462	0.243455
40	5	-0.00337372	0.000127838	0.00337614	0.242269
41	5	-0.00343489	0.000155495	0.0034384	0.241098
42	5	-0.00350706	0.000183271	0.00351185	0.239932
43	5	-0.00358971	0.000211126	0.00359591	0.238766
44	5	-0.00368338	0.000239064	0.00369112	0.237593
45	5	-0.00378774	0.000267162	0.00379715	0.236406
46	5	-0.00390319	0.000295715	0.00391438	0.2352
47	5	-0.00402934	0.000324446	0.00404238	0.233969
48	5	-0.00416659	0.00035353	0.00418156	0.232709
49	5	-0.00431489	0.00038269	0.00433182	0.231413
50	5	-0.00447429	0.000411935	0.00449321	0.230078
51	5	-0.00464435	0.000441355	0.00466528	0.228699
52	5	-0.00482539	0.000470401	0.00484827	0.227272
53	5	-0.00501659	0.000499238	0.00504137	0.225793
54	5	-0.00521823	0.000527489	0.00524483	0.224257
55	5	-0.00542933	0.000554897	0.00545761	0.222661
56	5	-0.00564979	0.000581232	0.00567961	0.221002
57	5	-0.00587863	0.000606005	0.00590979	0.219276
58	5	-0.00611502	0.000628752	0.00614726	0.217479
59	5	-0.00635775	0.000649106	0.0063908	0.215609
60	5	-0.00660581	0.000666256	0.00663933	0.213662
61	5	-0.00685732	0.000679877	0.00689094	0.211634
62	5	-0.00711078	0.000689011	0.00714408	0.209522
63	5	-0.00736386	0.000693246	0.00739642	0.207324
64	5	-0.00761464	0.000691512	0.00764598	0.205034
65	5	-0.00786012	0.000683246	0.00788976	0.20265
66	5	-0.00809793	0.00066767	0.00812541	0.200166
67	5	-0.00832455	0.000643842	0.00834941	0.197579
68	5	-0.00853717	0.000611064	0.00855901	0.194883
69	5	-0.00873191	0.000568676	0.0087504	0.192073
70	5	-0.00890516	0.000515959	0.00892009	0.189142
71	5	-0.00905326	0.000452407	0.00906455	0.186083
72	5	-0.00917222	0.000377869	0.00918	0.182889
73	5	-0.00925847	0.000292003	0.00926307	0.179553
74	5	-0.00930825	0.000194814	0.00931029	0.176064
75	5	-0.00931773	8.68803e-05	0.00931814	0.172413
76	5	-0.00928366	-3.12451e-05	0.00928371	0.168591
77	5	-0.00920317	-0.000158323	0.00920453	0.164585
78	5	-0.00907404	-0.000293067	0.00907877	0.160385
79	5	-0.00889419	-0.000433809	0.00890476	0.155979
80	5	-0.00866254	-0.000578573	0.00868184	0.151354
81	5	-0.00837877	-0.000725139	0.00841009	0.146498
82	5	-0.00804338	-0.000870582	0.00809036	0.1414
83	5	-0.00765781	-0.001012	0.00772439	0.136047
84	5	-0.00722469	-0.00114608	0.00731503	0.130427
85	5	-0.00674751	-0.0012692	0.00686584	0.124531
86	5	-0.00623146	-0.00137788	0.00638198	0.118348
87	5	-0.00568201	-0.00146887	0.0058688	0.111868
88	5	-0.00510641	-0.0015388	0.00533323	0.105085
89	5	-0.00451283	-0.0015842	0.00478281	0.097991
90	5	-0.00391045	-0.0016025	0.00422606	0.0905809
91	5	-0.00330948	-0.0015904	0.00367179	0.0828508
92	5	-0.0027207	-0.00154621	0.00312938	0.0747988
93	5	-0.00215606	-0.00146652	0.00260754	0.0664251
94	5	-0.00162814	-0.0013511	0.00211573	0.0577337
95	5	-0.00115031	-0.00119504	0.00165871	0.0487316
96	5	-0.000735798	-0.00100093	0.00124228	0.0394357
97	5	-0.000397892	-0.00076119	0.000858911	0.0298653
98	5	-0.00015197	-0.000485259	0.000508499	0.020064
99	5	-2.12702e-05	-0.000162253	0.000163642	0.0100774
100	5	0	-1.98585e-08	1.98585e-08	0
0	6	7.69727e-08	-9.93196e-09	7.76108e-08	1