TITLE = "Data"
variables = X,Y,U,V,Velocity,T
Zone t="data"
I=101,J=101,F=POINT
0	0	-nan(ind)	-nan(ind)	-nan(ind)	-nan(ind)
1	0	-nan(ind)	-nan(ind)	-nan(ind)	-nan(ind)
2	0	-nan(ind)	-nan(ind)	-nan(ind)	-nan(ind)
3	0	-nan(ind)	-nan(ind)	-nan(ind)	-nan(ind)
4	0	-nan(ind)	-nan(ind)	-nan(ind)	-nan(ind)
5	0	-nan(ind)	-nan(ind)	-nan(ind)	-nan(ind)
6	0	-nan(ind)	-nan(ind)	-nan(ind)	-nan(ind)
7	0	-nan(ind)	-nan(ind)	-nan(ind)	-nan(ind)
8	0	-nan(ind)	-nan(ind)	-nan(ind)	-nan(ind)
9	0	-nan(ind)	-nan(ind)	-nan(ind)	-nan(ind)
10	0	-nan(ind)	-nan(ind)	-nan(ind)	-nan(ind)
11	0	-nan(ind)	-nan(ind)	-nan(ind)	-nan(ind)
12	0	-nan(ind)	-nan(ind)	-nan(ind)	-nan(ind)
13	0	-nan(ind)	-nan(ind)	-nan(ind)	-nan(ind)
14	0	-nan(ind)	-nan(ind)	-nan(ind)	-nan(ind)
15	0	-nan(ind)	-nan(ind)	-nan(ind)	-nan(ind)
16	0	-nan(ind)	-nan(ind)	-nan(ind)	-nan(ind)
17	0	-nan(ind)	-nan(ind)	-nan(ind)	-nan(ind)
18	0	-nan(ind)	-nan(ind)	-nan(ind)	-nan(ind)
19	0	-nan(ind)	-nan(ind)	-nan(ind)	-nan(ind)
20	0	-nan(ind)	-nan(ind)	-nan(ind)	-nan(ind)
21	0	-nan(ind)	-nan(ind)	-nan(ind)	-nan(ind)
22	0	-nan(ind)	-nan(ind)	-nan(ind)	-nan(ind)
23	0	-nan(ind)	-nan(ind)	-nan(ind)	-nan(ind)
24	0	-nan(ind)	-nan(ind)	-nan(ind)	-nan(ind)
25	0	-nan(ind)	-nan(ind)	-nan(ind)	-nan(ind)
26	0	-nan(ind)	-nan(ind)	-nan(ind)	-nan(ind)
27	0	-nan(ind)	-nan(ind)	-nan(ind)	-nan(ind)
28	0	-nan(ind)	-nan(ind)	-nan(ind)	-nan(ind)
29	0	-nan(ind)	-nan(ind)	-nan(ind)	-nan(ind)
30	0	-nan(ind)	-nan(ind)	-nan(ind)	-nan(ind)
31	0	-nan(ind)	-nan(ind)	-nan(ind)	-nan(ind)
32	0	-nan(ind)	-nan(ind)	-nan(ind)	-nan(ind)
33	0	-nan(ind)	-nan(ind)	-nan(ind)	-nan(ind)
34	0	-nan(ind)	-nan(ind)	-nan(ind)	-nan(ind)
35	0	-nan(ind)	-nan(ind)	-nan(ind)	-nan(ind)
36	0	-nan(ind)	-nan(ind)	-nan(ind)	-nan(ind)
37	0	-nan(ind)	-nan(ind)	-nan(ind)	-nan(ind)
38	0	-nan(ind)	-nan(ind)	-nan(ind)	-nan(ind)
39	0	-nan(ind)	-nan(ind)	-nan(ind)	-nan(ind)
40	0	-nan(ind)	-nan(ind)	-nan(ind)	-nan(ind)
41	0	-nan(ind)	-nan(ind)	-nan(ind)	-nan(ind)
42	0	-nan(ind)	-nan(ind)	-nan(ind)	-nan(ind)
43	0	-nan(ind)	-nan(ind)	-nan(ind)	-nan(ind)
44	0	-nan(ind)	-nan(ind)	-nan(ind)	-nan(ind)
45	0	-nan(ind)	-nan(ind)	-nan(ind)	-nan(ind)
46	0	-nan(ind)	-nan(ind)	-nan(ind)	-nan(ind)
47	0	-nan(ind)	-nan(ind)	-nan(ind)	-nan(ind)
48	0	-nan(ind)	-nan(ind)	-nan(ind)	-nan(ind)
49	0	-nan(ind)	-nan(ind)	-nan(ind)	-nan(ind)
50	0	-nan(ind)	-nan(ind)	-nan(ind)	-nan(ind)
51	0	-nan(ind)	-nan(ind)	-nan(ind)	-nan(ind)
52	0	-nan(ind)	-nan(ind)	-nan(ind)	-nan(ind)
53	0	-nan(ind)	-nan(ind)	-nan(ind)	-nan(ind)
54	0	-nan(ind)	-nan(ind)	-nan(ind)	-nan(ind)
55	0	-nan(ind)	-nan(ind)	-nan(ind)	-nan(ind)
56	0	-nan(ind)	-nan(ind)	-nan(ind)	-nan(ind)
57	0	-nan(ind)	-nan(ind)	-nan(ind)	-nan(ind)
58	0	-nan(ind)	-nan(ind)	-nan(ind)	-nan(ind)
59	0	-nan(ind)	-nan(ind)	-nan(ind)	-nan(ind)
60	0	-nan(ind)	-nan(ind)	-nan(ind)	-nan(ind)
61	0	-nan(ind)	-nan(ind)	-nan(ind)	-nan(ind)
62	0	-nan(ind)	-nan(ind)	-nan(ind)	-nan(ind)
63	0	-nan(ind)	-nan(ind)	-nan(ind)	-nan(ind)
64	0	-nan(ind)	-nan(ind)	-nan(ind)	-nan(ind)
65	0	-nan(ind)	-nan(ind)	-nan(ind)	-nan(ind)
66	0	-nan(ind)	-nan(ind)	-nan(ind)	-nan(ind)
67	0	-nan(ind)	-nan(ind)	-nan(ind)	-nan(ind)
68	0	-nan(ind)	-nan(ind)	-nan(ind)	-nan(ind)
69	0	-nan(ind)	-nan(ind)	-nan(ind)	-nan(ind)
70	0	-nan(ind)	-nan(ind)	-nan(ind)	-nan(ind)
71	0	-nan(ind)	-nan(ind)	-nan(ind)	-nan(ind)
72	0	-nan(ind)	-nan(ind)	-nan(ind)	-nan(ind)
73	0	-nan(ind)	-nan(ind)	-nan(ind)	-nan(ind)
74	0	-nan(ind)	-nan(ind)	-nan(ind)	-nan(ind)
75	0	-nan(ind)	-nan(ind)	-nan(ind)	-nan(ind)
76	0	-nan(ind)	-nan(ind)	-nan(ind)	-nan(ind)
77	0	-nan(ind)	-nan(ind)	-nan(ind)	-nan(ind)
78	0	-nan(ind)	-nan(ind)	-nan(ind)	-nan(ind)
79	0	-nan(ind)	-nan(ind)	-nan(ind)	-nan(ind)
80	0	-nan(ind)	-nan(ind)	-nan(ind)	-nan(ind)
81	0	-nan(ind)	-nan(ind)	-nan(ind)	-nan(ind)
82	0	-nan(ind)	-nan(ind)	-nan(ind)	-nan(ind)
83	0	-nan(ind)	-nan(ind)	-nan(ind)	-nan(ind)
84	0	-nan(ind)	-nan(ind)	-nan(ind)	-nan(ind)
85	0	-nan(ind)	-nan(ind)	-nan(ind)	-nan(ind)
86	0	-nan(ind)	-nan(ind)	-nan(ind)	-nan(ind)
87	0	-nan(ind)	-nan(ind)	-nan(ind)	-nan(ind)
88	0	-nan(ind)	-nan(ind)	-nan(ind)	-nan(ind)
89	0	-nan(ind)	-nan(ind)	-nan(ind)	-nan(ind)
90	0	-nan(ind)	-nan(ind)	-nan(ind)	-nan(ind)
91	0	-nan(ind)	-nan(ind)	-nan(ind)	-nan(ind)
92	0	-nan(ind)	-nan(ind)	-nan(ind)	-nan(ind)
93	0	-nan(ind)	-nan(ind)	-nan(ind)	-nan(ind)
94	0	-nan(ind)	-nan(ind)	-nan(ind)	-nan(ind)
95	0	-nan(ind)	-nan(ind)	-nan(ind)	-nan(ind)
96	0	-nan(ind)	-nan(ind)	-nan(ind)	-nan(ind)
97	0	-nan(ind)	-nan(ind)	-nan(ind)	-nan(ind)
98	0	-nan(ind)	-nan(ind)	-nan(ind)	-nan(ind)
99	0	-nan(ind)	-nan(ind)	-nan(ind)	-nan(ind)
100	0	-nan(ind)	-nan(ind)	-nan(ind)	-nan(ind)
0	1	-nan(ind)	-nan(ind)	-nan(ind)	-nan(ind)
1	1	-nan(ind)	-nan(ind)	-nan(ind)	-nan(ind)
2	1	-nan(ind)	-nan(ind)	-nan(ind)	-nan(ind)
3	1	-nan(ind)	-nan(ind)	-nan(ind)	-nan(ind)
4	1	-nan(ind)	-nan(ind)	-nan(ind)	-nan(ind)
5	1	-nan(ind)	-nan(ind)	-nan(ind)	-nan(ind)
6	1	-nan(ind)	-nan(ind)	-nan(ind)	-nan(ind)
7	1	-nan(ind)	-nan(ind)	-nan(ind)	-nan(ind)
8	1	-nan(ind)	-nan(ind)	-nan(ind)	-nan(ind)
9	1	-nan(ind)	-nan(ind)	-nan(ind)	-nan(ind)
10	1	-nan(ind)	-nan(ind)	-nan(ind)	-nan(ind)
11	1	-nan(ind)	-nan(ind)	-nan(ind)	-nan(ind)
12	1	-nan(ind)	-nan(ind)	-nan(ind)	-nan(ind)
13	1	-nan(ind)	-nan(ind)	-nan(ind)	-nan(ind)
14	1	-nan(ind)	-nan(ind)	-nan(ind)	-nan(ind)
15	1	-nan(ind)	-nan(ind)	-nan(ind)	-nan(ind)
16	1	-nan(ind)	-nan(ind)	-nan(ind)	-nan(ind)
17	1	-nan(ind)	-nan(ind)	-nan(ind)	-nan(ind)
18	1	-nan(ind)	-nan(ind)	-nan(ind)	-nan(ind)
19	1	-nan(ind)	-nan(ind)	-nan(ind)	-nan(ind)
20	1	-nan(ind)	-nan(ind)	-nan(ind)	-nan(ind)
21	1	-nan(ind)	-nan(ind)	-nan(ind)	-nan(ind)
22	1	-nan(ind)	-nan(ind)	-nan(ind)	-nan(ind)
23	1	-nan(ind)	-nan(ind)	-nan(ind)	-nan(ind)
24	1	-nan(ind)	-nan(ind)	-nan(ind)	-nan(ind)
25	1	-nan(ind)	-nan(ind)	-nan(ind)	-nan(ind)
26	1	-nan(ind)	-nan(ind)	-nan(ind)	-nan(ind)
27	1	-nan(ind)	-nan(ind)	-nan(ind)	-nan(ind)
28	1	-nan(ind)	-nan(ind)	-nan(ind)	-nan(ind)
29	1	-nan(ind)	-nan(ind)	-nan(ind)	-nan(ind)
30	1	-nan(ind)	-nan(ind)	-nan(ind)	-nan(ind)
31	1	-nan(ind)	-nan(ind)	-nan(ind)	-nan(ind)
32	1	-nan(ind)	-nan(ind)	-nan(ind)	-nan(ind)
33	1	-nan(ind)	-nan(ind)	-nan(ind)	-nan(ind)
34	1	-nan(ind)	-nan(ind)	-nan(ind)	-nan(ind)
35	1	-nan(ind)	-nan(ind)	-nan(ind)	-nan(ind)
36	1	-nan(ind)	-nan(ind)	-nan(ind)	-nan(ind)
37	1	-nan(ind)	-nan(ind)	-nan(ind)	-nan(ind)
38	1	-nan(ind)	-nan(ind)	-nan(ind)	-nan(ind)
39	1	-nan(ind)	-nan(ind)	-nan(ind)	-nan(ind)
40	1	-nan(ind)	-nan(ind)	-nan(ind)	-nan(ind)
41	1	-nan(ind)	-nan(ind)	-nan(ind)	-nan(ind)
42	1	-nan(ind)	-nan(ind)	-nan(ind)	-nan(ind)
43	1	-nan(ind)	-nan(ind)	-nan(ind)	-nan(ind)
44	1	-nan(ind)	-nan(ind)	-nan(ind)	-nan(ind)
45	1	-nan(ind)	-nan(ind)	-nan(ind)	-nan(ind)
46	1	-nan(ind)	-nan(ind)	-nan(ind)	-nan(ind)
47	1	-nan(ind)	-nan(ind)	-nan(ind)	-nan(ind)
48	1	-nan(ind)	-nan(ind)	-nan(ind)	-nan(ind)
49	1	-nan(ind)	-nan(ind)	-nan(ind)	-nan(ind)
50	1	-nan(ind)	-nan(ind)	-nan(ind)	-nan(ind)
51	1	-nan(ind)	-nan(ind)	-nan(ind)	-nan(ind)
52	1	-nan(ind)	-nan(ind)	-nan(ind)	-nan(ind)
53	1	-nan(ind)	-nan(ind)	-nan(ind)	-nan(ind)
54	1	-nan(ind)	-nan(ind)	-nan(ind)	-nan(ind)
55	1	-nan(ind)	-nan(ind)	-nan(ind)	-nan(ind)
56	1	-nan(ind)	-nan(ind)	-nan(ind)	-nan(ind)
57	1	-nan(ind)	-nan(ind)	-nan(ind)	-nan(ind)
58	1	-nan(ind)	-nan(ind)	-nan(ind)	-nan(ind)
59	1	-nan(ind)	-nan(ind)	-nan(ind)	-nan(ind)
60	1	-nan(ind)	-nan(ind)	-nan(ind)	-nan(ind)
61	1	-nan(ind)	-nan(ind)	-nan(ind)	-nan(ind)
62	1	-nan(ind)	-nan(ind)	-nan(ind)	-nan(ind)
63	1	-nan(ind)	-nan(ind)	-nan(ind)	-nan(ind)
64	1	-nan(ind)	-nan(ind)	-nan(ind)	-nan(ind)
65	1	-nan(ind)	-nan(ind)	-nan(ind)	-nan(ind)
66	1	-nan(ind)	-nan(ind)	-nan(ind)	-nan(ind)
67	1	-nan(ind)	-nan(ind)	-nan(ind)	-nan(ind)
68	1	-nan(ind)	-nan(ind)	-nan(ind)	-nan(ind)
69	1	-nan(ind)	-nan(ind)	-nan(ind)	-nan(ind)
70	1	-nan(ind)	-nan(ind)	-nan(ind)	-nan(ind)
71	1	-nan(ind)	-nan(ind)	-nan(ind)	-nan(ind)
72	1	-nan(ind)	-nan(ind)	-nan(ind)	-nan(ind)
73	1	-nan(ind)	-nan(ind)	-nan(ind)	-nan(ind)
74	1	-nan(ind)	-nan(ind)	-nan(ind)	-nan(ind)
75	1	-nan(ind)	-nan(ind)	-nan(ind)	-nan(ind)
76	1	-nan(ind)	-nan(ind)	-nan(ind)	-nan(ind)
77	1	-nan(ind)	-nan(ind)	-nan(ind)	-nan(ind)
78	1	-nan(ind)	-nan(ind)	-nan(ind)	-nan(ind)
79	1	-nan(ind)	-nan(ind)	-nan(ind)	-nan(ind)
80	1	-nan(ind)	-nan(ind)	-nan(ind)	-nan(ind)
81	1	-nan(ind)	-nan(ind)	-nan(ind)	-nan(ind)
82	1	-nan(ind)	-nan(ind)	-nan(ind)	-nan(ind)
83	1	-nan(ind)	-nan(ind)	-nan(ind)	-nan(ind)
84	1	-nan(ind)	-nan(ind)	-nan(ind)	-nan(ind)
85	1	-nan(ind)	-nan(ind)	-nan(ind)	-nan(ind)
86	1	-nan(ind)	-nan(ind)	-nan(ind)	-nan(ind)
87	1	-nan(ind)	-nan(ind)	-nan(ind)	-nan(ind)
88	1	-nan(ind)	-nan(ind)	-nan(ind)	-nan(ind)
89	1	-nan(ind)	-nan(ind)	-nan(ind)	-nan(ind)
90	1	-nan(ind)	-nan(ind)	-nan(ind)	-nan(ind)
91	1	-nan(ind)	-nan(ind)	-nan(ind)	-nan(ind)
92	1	-nan(ind)	-nan(ind)	-nan(ind)	-nan(ind)
93	1	-nan(ind)	-nan(ind)	-nan(ind)	-nan(ind)
94	1	-nan(ind)	-nan(ind)	-nan(ind)	-nan(ind)
95	1	-nan(ind)	-nan(ind)	-nan(ind)	-nan(ind)
96	1	-nan(ind)	-nan(ind)	-nan(ind)	-nan(ind)
97	1	-nan(ind)	-nan(ind)	-nan(ind)	-nan(ind)
98	1	-nan(ind)	-nan(ind)	-nan(ind)	-nan(ind)
99	1	-nan(ind)	-nan(ind)	-nan(ind)	-nan(ind)
100	1	-nan(ind)	-nan(ind)	-nan(ind)	-nan(ind)
0	2	-nan(ind)	-nan(ind)	-nan(ind)	-nan(ind)
1	2	-nan(ind)	-nan(ind)	-nan(ind)	-nan(ind)
2	2	-nan(ind)	-nan(ind)	-nan(ind)	-nan(ind)
3	2	-nan(ind)	-nan(ind)	-nan(ind)	-nan(ind)
4	2	-nan(ind)	-nan(ind)	-nan(ind)	-nan(ind)
5	2	-nan(ind)	-nan(ind)	-nan(ind)	-nan(ind)
6	2	-nan(ind)	-nan(ind)	-nan(ind)	-nan(ind)
7	2	-nan(ind)	-nan(ind)	-nan(ind)	-nan(ind)
8	2	-nan(ind)	-nan(ind)	-nan(ind)	-nan(ind)
9	2	-nan(ind)	-nan(ind)	-nan(ind)	-nan(ind)
10	2	-nan(ind)	-nan(ind)	-nan(ind)	-nan(ind)
11	2	-nan(ind)	-nan(ind)	-nan(ind)	-nan(ind)
12	2	-nan(ind)	-nan(ind)	-nan(ind)	-nan(ind)
13	2	-nan(ind)	-nan(ind)	-nan(ind)	-nan(ind)
14	2	-nan(ind)	-nan(ind)	-nan(ind)	-nan(ind)
15	2	-nan(ind)	-nan(ind)	-nan(ind)	-nan(ind)
16	2	-nan(ind)	-nan(ind)	-nan(ind)	-nan(ind)
17	2	-nan(ind)	-nan(ind)	-nan(ind)	-nan(ind)
18	2	-nan(ind)	-nan(ind)	-nan(ind)	-nan(ind)
19	2	-nan(ind)	-nan(ind)	-nan(ind)	-nan(ind)
20	2	-nan(ind)	-nan(ind)	-nan(ind)	-nan(ind)
21	2	-nan(ind)	-nan(ind)	-nan(ind)	-nan(ind)
22	2	-nan(ind)	-nan(ind)	-nan(ind)	-nan(ind)
23	2	-nan(ind)	-nan(ind)	-nan(ind)	-nan(ind)
24	2	-nan(ind)	-nan(ind)	-nan(ind)	-nan(ind)
25	2	-nan(ind)	-nan(ind)	-nan(ind)	-nan(ind)
26	2	-nan(ind)	-nan(ind)	-nan(ind)	-nan(ind)
27	2	-nan(ind)	-nan(ind)	-nan(ind)	-nan(ind)
28	2	-nan(ind)	-nan(ind)	-nan(ind)	-nan(ind)
29	2	-nan(ind)	-nan(ind)	-nan(ind)	-nan(ind)
30	2	-nan(ind)	-nan(ind)	-nan(ind)	-nan(ind)
31	2	-nan(ind)	-nan(ind)	-nan(ind)	-nan(ind)
32	2	-nan(ind)	-nan(ind)	-nan(ind)	-nan(ind)
33	2	-nan(ind)	-nan(ind)	-nan(ind)	-nan(ind)
34	2	-nan(ind)	-nan(ind)	-nan(ind)	-nan(ind)
35	2	-nan(ind)	-nan(ind)	-nan(ind)	-nan(ind)
36	2	-nan(ind)	-nan(ind)	-nan(ind)	-nan(ind)
37	2	-nan(ind)	-nan(ind)	-nan(ind)	-nan(ind)
38	2	-nan(ind)	-nan(ind)	-nan(ind)	-nan(ind)
39	2	-nan(ind)	-nan(ind)	-nan(ind)	-nan(ind)
40	2	-nan(ind)	-nan(ind)	-nan(ind)	-nan(ind)
41	2	-nan(ind)	-nan(ind)	-nan(ind)	-nan(ind)
42	2	-nan(ind)	-nan(ind)	-nan(ind)	-nan(ind)
43	2	-nan(ind)	-nan(ind)	-nan(ind)	-nan(ind)
44	2	-nan(ind)	-nan(ind)	-nan(ind)	-nan(ind)
45	2	-nan(ind)	-nan(ind)	-nan(ind)	-nan(ind)
46	2	-nan(ind)	-nan(ind)	-nan(ind)	-nan(ind)
47	2	-nan(ind)	-nan(ind)	-nan(ind)	-nan(ind)
48	2	-nan(ind)	-nan(ind)	-nan(ind)	-nan(ind)
49	2	-nan(ind)	-nan(ind)	-nan(ind)	-nan(ind)
50	2	-nan(ind)	-nan(ind)	-nan(ind)	-nan(ind)
51	2	-nan(ind)	-nan(ind)	-nan(ind)	-nan(ind)
52	2	-nan(ind)	-nan(ind)	-nan(ind)	-nan(ind)
53	2	-nan(ind)	-nan(ind)	-nan(ind)	-nan(ind)
54	2	-nan(ind)	-nan(ind)	-nan(ind)	-nan(ind)
55	2	-nan(ind)	-nan(ind)	-nan(ind)	-nan(ind)
56	2	-nan(ind)	-nan(ind)	-nan(ind)	-nan(ind)
57	2	-nan(ind)	-nan(ind)	-nan(ind)	-nan(ind)
58	2	-nan(ind)	-nan(ind)	-nan(ind)	-nan(ind)
59	2	-nan(ind)	-nan(ind)	-nan(ind)	-nan(ind)
60	2	-nan(ind)	-nan(ind)	-nan(ind)	-nan(ind)
61	2	-nan(ind)	-nan(ind)	-nan(ind)	-nan(ind)
62	2	-nan(ind)	-nan(ind)	-nan(ind)	-nan(ind)
63	2	-nan(ind)	-nan(ind)	-nan(ind)	-nan(ind)
64	2	-nan(ind)	-nan(ind)	-nan(ind)	-nan(ind)
65	2	-nan(ind)	-nan(ind)	-nan(ind)	-nan(ind)
66	2	-nan(ind)	-nan(ind)	-nan(ind)	-nan(ind)
67	2	-nan(ind)	-nan(ind)	-nan(ind)	-nan(ind)
68	2	-nan(ind)	-nan(ind)	-nan(ind)	-nan(ind)
69	2	-nan(ind)	-nan(ind)	-nan(ind)	-nan(ind)
70	2	-nan(ind)	-nan(ind)	-nan(ind)	-nan(ind)
71	2	-nan(ind)	-nan(ind)	-nan(ind)	-nan(ind)
72	2	-nan(ind)	-nan(ind)	-nan(ind)	-nan(ind)
73	2	-nan(ind)	-nan(ind)	-nan(ind)	-nan(ind)
74	2	-nan(ind)	-nan(ind)	-nan(ind)	-nan(ind)
75	2	-nan(ind)	-nan(ind)	-nan(ind)	-nan(ind)
76	2	-nan(ind)	-nan(ind)	-nan(ind)	-nan(ind)
77	2	-nan(ind)	-nan(ind)	-nan(ind)	-nan(ind)
78	2	-nan(ind)	-nan(ind)	-nan(ind)	-nan(ind)
79	2	-nan(ind)	-nan(ind)	-nan(ind)	-nan(ind)
80	2	-nan(ind)	-nan(ind)	-nan(ind)	-nan(ind)
81	2	-nan(ind)	-nan(ind)	-nan(ind)	-nan(ind)
82	2	-nan(ind)	-nan(ind)	-nan(ind)	-nan(ind)
83	2	-nan(ind)	-nan(ind)	-nan(ind)	-nan(ind)
84	2	-nan(ind)	-nan(ind)	-nan(ind)	-nan(ind)
85	2	-nan(ind)	-nan(ind)	-nan(ind)	-nan(ind)
86	2	-nan(ind)	-nan(ind)	-nan(ind)	-nan(ind)
87	2	-nan(ind)	-nan(ind)	-nan(ind)	-nan(ind)
88	2	-nan(ind)	-nan(ind)	-nan(ind)	-nan(ind)
89	2	-nan(ind)	-nan(ind)	-nan(ind)	-nan(ind)
90	2	-nan(ind)	-nan(ind)	-nan(ind)	-nan(ind)
91	2	-nan(ind)	-nan(ind)	-nan(ind)	-nan(ind)
92	2	-nan(ind)	-nan(ind)	-nan(ind)	-nan(ind)
93	2	-nan(ind)	-nan(ind)	-nan(ind)	-nan(ind)
94	2	-nan(ind)	-nan(ind)	-nan(ind)	-nan(ind)
95	2	-nan(ind)	-nan(ind)	-nan(ind)	-nan(ind)
96	2	-nan(ind)	-nan(ind)	-nan(ind)	-nan(ind)
97	2	-nan(ind)	-nan(ind)	-nan(ind)	-nan(ind)
98	2	-nan(ind)	-nan(ind)	-nan(ind)	-nan(ind)
99	2	-nan(ind)	-nan(ind)	-nan(ind)	-nan(ind)
100	2	-nan(ind)	-nan(ind)	-nan(ind)	-nan(ind)
0	3	-nan(ind)	-nan(ind)	-nan(ind)	-nan(ind)
1	3	-nan(ind)	-nan(ind)	-nan(ind)	-nan(ind)
2	3	-nan(ind)	-nan(ind)	-nan(ind)	-nan(ind)
3	3	-nan(ind)	-nan(ind)	-nan(ind)	-nan(ind)
4	3	-nan(ind)	-nan(ind)	-nan(ind)	-nan(ind)
5	3	-nan(ind)	-nan(ind)	-nan(ind)	-nan(ind)
6	3	-nan(ind)	-nan(ind)	-nan(ind)	-nan(ind)
7	3	-nan(ind)	-nan(ind)	-nan(ind)	-nan(ind)
8	3	-nan(ind)	-nan(ind)	-nan(ind)	-nan(ind)
9	3	-nan(ind)	-nan(ind)	-nan(ind)	-nan(ind)
10	3	-nan(ind)	-nan(ind)	-nan(ind)	-nan(ind)
11	3	-nan(ind)	-nan(ind)	-nan(ind)	-nan(ind)
12	3	-nan(ind)	-nan(ind)	-nan(ind)	-nan(ind)
13	3	-nan(ind)	-nan(ind)	-nan(ind)	-nan(ind)
14	3	-nan(ind)	-nan(ind)	-nan(ind)	-nan(ind)
15	3	-nan(ind)	-nan(ind)	-nan(ind)	-nan(ind)
16	3	-nan(ind)	-nan(ind)	-nan(ind)	-nan(ind)
17	3	-nan(ind)	-nan(ind)	-nan(ind)	-nan(ind)
18	3	-nan(ind)	-nan(ind)	-nan(ind)	-nan(ind)
19	3	-nan(ind)	-nan(ind)	-nan(ind)	-nan(ind)
20	3	-nan(ind)	-nan(ind)	-nan(ind)	-nan(ind)
21	3	-nan(ind)	-nan(ind)	-nan(ind)	-nan(ind)
22	3	-nan(ind)	-nan(ind)	-nan(ind)	-nan(ind)
23	3	-nan(ind)	-nan(ind)	-nan(ind)	-nan(ind)
24	3	-nan(ind)	-nan(ind)	-nan(ind)	-nan(ind)
25	3	-nan(ind)	-nan(ind)	-nan(ind)	-nan(ind)
26	3	-nan(ind)	-nan(ind)	-nan(ind)	-nan(ind)
27	3	-nan(ind)	-nan(ind)	-nan(ind)	-nan(ind)
28	3	-nan(ind)	-nan(ind)	-nan(ind)	-nan(ind)
29	3	-nan(ind)	-nan(ind)	-nan(ind)	-nan(ind)
30	3	-nan(ind)	-nan(ind)	-nan(ind)	-nan(ind)
31	3	-nan(ind)	-nan(ind)	-nan(ind)	-nan(ind)
32	3	-nan(ind)	-nan(ind)	-nan(ind)	-nan(ind)
33	3	-nan(ind)	-nan(ind)	-nan(ind)	-nan(ind)
34	3	-nan(ind)	-nan(ind)	-nan(ind)	-nan(ind)
35	3	-nan(ind)	-nan(ind)	-nan(ind)	-nan(ind)
36	3	-nan(ind)	-nan(ind)	-nan(ind)	-nan(ind)
37	3	-nan(ind)	-nan(ind)	-nan(ind)	-nan(ind)
38	3	-nan(ind)	-nan(ind)	-nan(ind)	-nan(ind)
39	3	-nan(ind)	-nan(ind)	-nan(ind)	-nan(ind)
40	3	-nan(ind)	-nan(ind)	-nan(ind)	-nan(ind)
41	3	-nan(ind)	-nan(ind)	-nan(ind)	-nan(ind)
42	3	-nan(ind)	-nan(ind)	-nan(ind)	-nan(ind)
43	3	-nan(ind)	-nan(ind)	-nan(ind)	-nan(ind)
44	3	-nan(ind)	-nan(ind)	-nan(ind)	-nan(ind)
45	3	-nan(ind)	-nan(ind)	-nan(ind)	-nan(ind)
46	3	-nan(ind)	-nan(ind)	-nan(ind)	-nan(ind)
47	3	-nan(ind)	-nan(ind)	-nan(ind)	-nan(ind)
48	3	-nan(ind)	-nan(ind)	-nan(ind)	-nan(ind)
49	3	-nan(ind)	-nan(ind)	-nan(ind)	-nan(ind)
50	3	-nan(ind)	-nan(ind)	-nan(ind)	-nan(ind)
51	3	-nan(ind)	-nan(ind)	-nan(ind)	-nan(ind)
52	3	-nan(ind)	-nan(ind)	-nan(ind)	-nan(ind)
53	3	-nan(ind)	-nan(ind)	-nan(ind)	-nan(ind)
54	3	-nan(ind)	-nan(ind)	-nan(ind)	-nan(ind)
55	3	-nan(ind)	-nan(ind)	-nan(ind)	-nan(ind)
56	3	-nan(ind)	-nan(ind)	-nan(ind)	-nan(ind)
57	3	-nan(ind)	-nan(ind)	-nan(ind)	-nan(ind)
58	3	-nan(ind)	-nan(ind)	-nan(ind)	-nan(ind)
59	3	-nan(ind)	-nan(ind)	-nan(ind)	-nan(ind)
60	3	-nan(ind)	-nan(ind)	-nan(ind)	-nan(ind)
61	3	-nan(ind)	-nan(ind)	-nan(ind)	-nan(ind)
62	3	-nan(ind)	-nan(ind)	-nan(ind)	-nan(ind)
63	3	-nan(ind)	-nan(ind)	-nan(ind)	-nan(ind)
64	3	-nan(ind)	-nan(ind)	-nan(ind)	-nan(ind)
65	3	-nan(ind)	-nan(ind)	-nan(ind)	-nan(ind)
66	3	-nan(ind)	-nan(ind)	-nan(ind)	-nan(ind)
67	3	-nan(ind)	-nan(ind)	-nan(ind)	-nan(ind)
68	3	-nan(ind)	-nan(ind)	-nan(ind)	-nan(ind)
69	3	-nan(ind)	-nan(ind)	-nan(ind)	-nan(ind)
70	3	-nan(ind)	-nan(ind)	-nan(ind)	-nan(ind)
71	3	-nan(ind)	-nan(ind)	-nan(ind)	-nan(ind)
72	3	-nan(ind)	-nan(ind)	-nan(ind)	-nan(ind)
73	3	-nan(ind)	-nan(ind)	-nan(ind)	-nan(ind)
74	3	-nan(ind)	-nan(ind)	-nan(ind)	-nan(ind)
75	3	-nan(ind)	-nan(ind)	-nan(ind)	-nan(ind)
76	3	-nan(ind)	-nan(ind)	-nan(ind)	-nan(ind)
77	3	-nan(ind)	-nan(ind)	-nan(ind)	-nan(ind)
78	3	-nan(ind)	-nan(ind)	-nan(ind)	-nan(ind)
79	3	-nan(ind)	-nan(ind)	-nan(ind)	-nan(ind)
80	3	-nan(ind)	-nan(ind)	-nan(ind)	-nan(ind)
81	3	-nan(ind)	-nan(ind)	-nan(ind)	-nan(ind)
82	3	-nan(ind)	-nan(ind)	-nan(ind)	-nan(ind)
83	3	-nan(ind)	-nan(ind)	-nan(ind)	-nan(ind)
84	3	-nan(ind)	-nan(ind)	-nan(ind)	-nan(ind)
85	3	-nan(ind)	-nan(ind)	-nan(ind)	-nan(ind)
86	3	-nan(ind)	-nan(ind)	-nan(ind)	-nan(ind)
87	3	-nan(ind)	-nan(ind)	-nan(ind)	-nan(ind)
88	3	-nan(ind)	-nan(ind)	-nan(ind)	-nan(ind)
89	3	-nan(ind)	-nan(ind)	-nan(ind)	-nan(ind)
90	3	-nan(ind)	-nan(ind)	-nan(ind)	-nan(ind)
91	3	-nan(ind)	-nan(ind)	-nan(ind)	-nan(ind)
92	3	-nan(ind)	-nan(ind)	-nan(ind)	-nan(ind)
93	3	-nan(ind)	-nan(ind)	-nan(ind)	-nan(ind)
94	3	-nan(ind)	-nan(ind)	-nan(ind)	-nan(ind)
95	3	-nan(ind)	-nan(ind)	-nan(ind)	-nan(ind)
96	3	-nan(ind)	-nan(ind)	-nan(ind)	-nan(ind)
97	3	-nan(ind)	-nan(ind)	-nan(ind)	-nan(ind)
98	3	-nan(ind)	-nan(ind)	-nan(ind)	-nan(ind)
99	3	-nan(ind)	-nan(ind)	-nan(ind)	-nan(ind)
100	3	-nan(ind)	-nan(ind)	-nan(ind)	-nan(ind)
0	4	-nan(ind)	-nan(ind)	-nan(ind)	-nan(ind)
1	4	-nan(ind)	-nan(ind)	-nan(ind)	-nan(ind)
2	4	-nan(ind)	-nan(ind)	-nan(ind)	-nan(ind)
3	4	-nan(ind)	-nan(ind)	-nan(ind)	-nan(ind)
4	4	-nan(ind)	-nan(ind)	-nan(ind)	-nan(ind)
5	4	-nan(ind)	-nan(ind)	-nan(ind)	-nan(ind)
6	4	-nan(ind)	-nan(ind)	-nan(ind)	-nan(ind)
7	4	-nan(ind)	-nan(ind)	-nan(ind)	-nan(ind)
8	4	-nan(ind)	-nan(ind)	-nan(ind)	-nan(ind)
9	4	-nan(ind)	-nan(ind)	-nan(ind)	-nan(ind)
10	4	-nan(ind)	-nan(ind)	-nan(ind)	-nan(ind)
11	4	-nan(ind)	-nan(ind)	-nan(ind)	-nan(ind)
12	4	-nan(ind)	-nan(ind)	-nan(ind)	-nan(ind)
13	4	-nan(ind)	-nan(ind)	-nan(ind)	-nan(ind)
14	4	-nan(ind)	-nan(ind)	-nan(ind)	-nan(ind)
15	4	-nan(ind)	-nan(ind)	-nan(ind)	-nan(ind)
16	4	-nan(ind)	-nan(ind)	-nan(ind)	-nan(ind)
17	4	-nan(ind)	-nan(ind)	-nan(ind)	-nan(ind)
18	4	-nan(ind)	-nan(ind)	-nan(ind)	-nan(ind)
19	4	-nan(ind)	-nan(ind)	-nan(ind)	-nan(ind)
20	4	-nan(ind)	-nan(ind)	-nan(ind)	-nan(ind)
21	4	-nan(ind)	-nan(ind)	-nan(ind)	-nan(ind)
22	4	-nan(ind)	-nan(ind)	-nan(ind)	-nan(ind)
23	4	-nan(ind)	-nan(ind)	-nan(ind)	-nan(ind)
24	4	-nan(ind)	-nan(ind)	-nan(ind)	-nan(ind)
25	4	-nan(ind)	-nan(ind)	-nan(ind)	-nan(ind)
26	4	-nan(ind)	-nan(ind)	-nan(ind)	-nan(ind)
27	4	-nan(ind)	-nan(ind)	-nan(ind)	-nan(ind)
28	4	-nan(ind)	-nan(ind)	-nan(ind)	-nan(ind)
29	4	-nan(ind)	-nan(ind)	-nan(ind)	-nan(ind)
30	4	-nan(ind)	-nan(ind)	-nan(ind)	-nan(ind)
31	4	-nan(ind)	-nan(ind)	-nan(ind)	-nan(ind)
32	4	-nan(ind)	-nan(ind)	-nan(ind)	-nan(ind)
33	4	-nan(ind)	-nan(ind)	-nan(ind)	-nan(ind)
34	4	-nan(ind)	-nan(ind)	-nan(ind)	-nan(ind)
35	4	-nan(ind)	-nan(ind)	-nan(ind)	-nan(ind)
36	4	-nan(ind)	-nan(ind)	-nan(ind)	-nan(ind)
37	4	-nan(ind)	-nan(ind)	-nan(ind)	-nan(ind)
38	4	-nan(ind)	-nan(ind)	-nan(ind)	-nan(ind)
39	4	-nan(ind)	-nan(ind)	-nan(ind)	-nan(ind)
40	4	-nan(ind)	-nan(ind)	-nan(ind)	-nan(ind)
41	4	-nan(ind)	-nan(ind)	-nan(ind)	-nan(ind)
42	4	-nan(ind)	-nan(ind)	-nan(ind)	-nan(ind)
43	4	-nan(ind)	-nan(ind)	-nan(ind)	-nan(ind)
44	4	-nan(ind)	-nan(ind)	-nan(ind)	-nan(ind)
45	4	-nan(ind)	-nan(ind)	-nan(ind)	-nan(ind)
46	4	-nan(ind)	-nan(ind)	-nan(ind)	-nan(ind)
47	4	-nan(ind)	-nan(ind)	-nan(ind)	-nan(ind)
48	4	-nan(ind)	-nan(ind)	-nan(ind)	-nan(ind)
49	4	-nan(ind)	-nan(ind)	-nan(ind)	-nan(ind)
50	4	-nan(ind)	-nan(ind)	-nan(ind)	-nan(ind)
51	4	-nan(ind)	-nan(ind)	-nan(ind)	-nan(ind)
52	4	-nan(ind)	-nan(ind)	-nan(ind)	-nan(ind)
53	4	-nan(ind)	-nan(ind)	-nan(ind)	-nan(ind)
54	4	-nan(ind)	-nan(ind)	-nan(ind)	-nan(ind)
55	4	-nan(ind)	-nan(ind)	-nan(ind)	-nan(ind)
56	4	-nan(ind)	-nan(ind)	-nan(ind)	-nan(ind)
57	4	-nan(ind)	-nan(ind)	-nan(ind)	-nan(ind)
58	4	-nan(ind)	-nan(ind)	-nan(ind)	-nan(ind)
59	4	-nan(ind)	-nan(ind)	-nan(ind)	-nan(ind)
60	4	-nan(ind)	-nan(ind)	-nan(ind)	-nan(ind)
61	4	-nan(ind)	-nan(ind)	-nan(ind)	-nan(ind)
62	4	-nan(ind)	-nan(ind)	-nan(ind)	-nan(ind)
63	4	-nan(ind)	-nan(ind)	-nan(ind)	-nan(ind)
64	4	-nan(ind)	-nan(ind)	-nan(ind)	-nan(ind)
65	4	-nan(ind)	-nan(ind)	-nan(ind)	-nan(ind)
66	4	-nan(ind)	-nan(ind)	-nan(ind)	-nan(ind)
67	4	-nan(ind)	-nan(ind)	-nan(ind)	-nan(ind)
68	4	-nan(ind)	-nan(ind)	-nan(ind)	-nan(ind)
69	4	-nan(ind)	-nan(ind)	-nan(ind)	-nan(ind)
70	4	-nan(ind)	-nan(ind)	-nan(ind)	-nan(ind)
71	4	-nan(ind)	-nan(ind)	-nan(ind)	-nan(ind)
72	4	-nan(ind)	-nan(ind)	-nan(ind)	-nan(ind)
73	4	-nan(ind)	-nan(ind)	-nan(ind)	-nan(ind)
74	4	-nan(ind)	-nan(ind)	-nan(ind)	-nan(ind)
75	4	-nan(ind)	-nan(ind)	-nan(ind)	-nan(ind)
76	4	-nan(ind)	-nan(ind)	-nan(ind)	-nan(ind)
77	4	-nan(ind)	-nan(ind)	-nan(ind)	-nan(ind)
78	4	-nan(ind)	-nan(ind)	-nan(ind)	-nan(ind)
79	4	-nan(ind)	-nan(ind)	-nan(ind)	-nan(ind)
80	4	-nan(ind)	-nan(ind)	-nan(ind)	-nan(ind)
81	4	-nan(ind)	-nan(ind)	-nan(ind)	-nan(ind)
82	4	-nan(ind)	-nan(ind)	-nan(ind)	-nan(ind)
83	4	-nan(ind)	-nan(ind)	-nan(ind)	-nan(ind)
84	4	-nan(ind)	-nan(ind)	-nan(ind)	-nan(ind)
85	4	-nan(ind)	-nan(ind)	-nan(ind)	-nan(ind)
86	4	-nan(ind)	-nan(ind)	-nan(ind)	-nan(ind)
87	4	-nan(ind)	-nan(ind)	-nan(ind)	-nan(ind)
88	4	-nan(ind)	-nan(ind)	-nan(ind)	-nan(ind)
89	4	-nan(ind)	-nan(ind)	-nan(ind)	-nan(ind)
90	4	-nan(ind)	-nan(ind)	-nan(ind)	-nan(ind)
91	4	-nan(ind)	-nan(ind)	-nan(ind)	-nan(ind)
92	4	-nan(ind)	-nan(ind)	-nan(ind)	-nan(ind)
93	4	-nan(ind)	-nan(ind)	-nan(ind)	-nan(ind)
94	4	-nan(ind)	-nan(ind)	-nan(ind)	-nan(ind)
95	4	-nan(ind)	-nan(ind)	-nan(ind)	-nan(ind)
96	4	-nan(ind)	-nan(ind)	-nan(ind)	-nan(ind)
97	4	-nan(ind)	-nan(ind)	-nan(ind)	-nan(ind)
98	4	-nan(ind)	-nan(ind)	-nan(ind)	-nan(ind)
99	4	-nan(ind)	-nan(ind)	-nan(ind)	-nan(ind)
100	4	-nan(ind)	-nan(ind)	-nan(ind)	-nan(ind)
0	5	-nan(ind)	-nan(ind)	-nan(ind)	-nan(ind)
1	5	-nan(ind)	-nan(ind)	-nan(ind)	-nan(ind)
2	5	-nan(ind)	-nan(ind)	-nan(ind)	-nan(ind)
3	5	-nan(ind)	-nan(ind)	-nan(ind)	-nan(ind)
4	5	-nan(ind)	-nan(ind)	-nan(ind)	-nan(ind)
5	5	-nan(ind)	-nan(ind)	-nan(ind)	-nan(ind)
6	5	-nan(ind)	-nan(ind)	-nan(ind)	-nan(ind)
7	5	-nan(ind)	-nan(ind)	-nan(ind)	-nan(ind)
8	5	-nan(ind)	-nan(ind)	-nan(ind)	-nan(ind)
9	5	-nan(ind)	-nan(ind)	-nan(ind)	-nan(ind)
10	5	-nan(ind)	-nan(ind)	-nan(ind)	-nan(ind)
11	5	-nan(ind)	-nan(ind)	-nan(ind)	-nan(ind)
12	5	-nan(ind)	-nan(ind)	-nan(ind)	-nan(ind)
13	5	-nan(ind)	-nan(ind)	-nan(ind)	-nan(ind)
14	5	-nan(ind)	-nan(ind)	-nan(ind)	-nan(ind)
15	5	-nan(ind)	-nan(ind)	-nan(ind)	-nan(ind)
16	5	-nan(ind)	-nan(ind)	-nan(ind)	-nan(ind)
17	5	-nan(ind)	-nan(ind)	-nan(ind)	-nan(ind)
18	5	-nan(ind)	-nan(ind)	-nan(ind)	-nan(ind)
19	5	-nan(ind)	-nan(ind)	-nan(ind)	-nan(ind)
20	5	-nan(ind)	-nan(ind)	-nan(ind)	-nan(ind)
21	5	-nan(ind)	-nan(ind)	-nan(ind)	-nan(ind)
22	5	-nan(ind)	-nan(ind)	-nan(ind)	-nan(ind)
23	5	-nan(ind)	-nan(ind)	-nan(ind)	-nan(ind)
24	5	-nan(ind)	-nan(ind)	-nan(ind)	-nan(ind)
25	5	-nan(ind)	-nan(ind)	-nan(ind)	-nan(ind)
26	5	-nan(ind)	-nan(ind)	-nan(ind)	-nan(ind)
27	5	-nan(ind)	-nan(ind)	-nan(ind)	-nan(ind)
28	5	-nan(ind)	-nan(ind)	-nan(ind)	-nan(ind)
29	5	-nan(ind)	-nan(ind)	-nan(ind)	-nan(ind)
30	5	-nan(ind)	-nan(ind)	-nan(ind)	-nan(ind)
31	5	-nan(ind)	-nan(ind)	-nan(ind)	-nan(ind)
32	5	-nan(ind)	-nan(ind)	-nan(ind)	-nan(ind)
33	5	-nan(ind)	-nan(ind)	-nan(ind)	-nan(ind)
34	5	-nan(ind)	-nan(ind)	-nan(ind)	-nan(ind)
35	5	-nan(ind)	-nan(ind)	-nan(ind)	-nan(ind)
36	5	-nan(ind)	-nan(ind)	-nan(ind)	-nan(ind)
37	5	-nan(ind)	-nan(ind)	-nan(ind)	-nan(ind)
38	5	-nan(ind)	-nan(ind)	-nan(ind)	-nan(ind)
39	5	-nan(ind)	-nan(ind)	-nan(ind)	-nan(ind)
40	5	-nan(ind)	-nan(ind)	-nan(ind)	-nan(ind)
41	5	-nan(ind)	-nan(ind)	-nan(ind)	-nan(ind)
42	5	-nan(ind)	-nan(ind)	-nan(ind)	-nan(ind)
43	5	-nan(ind)	-nan(ind)	-nan(ind)	-nan(ind)
44	5	-nan(ind)	-nan(ind)	-nan(ind)	-nan(ind)
45	5	-nan(ind)	-nan(ind)	-nan(ind)	-nan(ind)
46	5	-nan(ind)	-nan(ind)	-nan(ind)	-nan(ind)
47	5	-nan(ind)	-nan(ind)	-nan(ind)	-nan(ind)
48	5	-nan(ind)	-nan(ind)	-nan(ind)	-nan(ind)
49	5	-nan(ind)	-nan(ind)	-nan(ind)	-nan(ind)
50	5	-nan(ind)	-nan(ind)	-nan(ind)	-nan(ind)
51	5	-nan(ind)	-nan(ind)	-nan(ind)	-nan(ind)
52	5	-nan(ind)	-nan(ind)	-nan(ind)	-nan(ind)
53	5	-nan(ind)	-nan(ind)	-nan(ind)	-nan(ind)
54	5	-nan(ind)	-nan(ind)	-nan(ind)	-nan(ind)
55	5	-nan(ind)	-nan(ind)	-nan(ind)	-nan(ind)
56	5	-nan(ind)	-nan(ind)	-nan(ind)	-nan(ind)
57	5	-nan(ind)	-nan(ind)	-nan(ind)	-nan(ind)
58	5	-nan(ind)	-nan(ind)	-nan(ind)	-nan(ind)
59	5	-nan(ind)	-nan(ind)	-nan(ind)	-nan(ind)
60	5	-nan(ind)	-nan(ind)	-nan(ind)	-nan(ind)
61	5	-nan(ind)	-nan(ind)	-nan(ind)	-nan(ind)
62	5	-nan(ind)	-nan(ind)	-nan(ind)	-nan(ind)
63	5	-nan(ind)	-nan(ind)	-nan(ind)	-nan(ind)
64	5	-nan(ind)	-nan(ind)	-nan(ind)	-nan(ind)
65	5	-nan(ind)	-nan(ind)	-nan(ind)	-nan(ind)
66	5	-nan(ind)	-nan(ind)	-nan(ind)	-nan(ind)
67	5	-nan(ind)	-nan(ind)	-nan(ind)	-nan(ind)
68	5	-nan(ind)	-nan(ind)	-nan(ind)	-nan(ind)
69	5	-nan(ind)	-nan(ind)	-nan(ind)	-nan(ind)
70	5	-nan(ind)	-nan(ind)	-nan(ind)	-nan(ind)
71	5	-nan(ind)	-nan(ind)	-nan(ind)	-nan(ind)
72	5	-nan(ind)	-nan(ind)	-nan(ind)	-nan(ind)
73	5	-nan(ind)	-nan(ind)	-nan(ind)	-nan(ind)
74	5	-nan(ind)	-nan(ind)	-nan(ind)	-nan(ind)
75	5	-nan(ind)	-nan(ind)	-nan(ind)	-nan(ind)
76	5	-nan(ind)	-nan(ind)	-nan(ind)	-nan(ind)
77	5	-nan(ind)	-nan(ind)	-nan(ind)	-nan(ind)
78	5	-nan(ind)	-nan(ind)	-nan(ind)	-nan(ind)
79	5	-nan(ind)	-nan(ind)	-nan(ind)	-nan(ind)
80	5	-nan(ind)	-nan(ind)	-nan(ind)	-nan(ind)
81	5	-nan(ind)	-nan(ind)	-nan(ind)	-nan(ind)
82	5	-nan(ind)	-nan(ind)	-nan(ind)	-nan(ind)
83	5	-nan(ind)	-nan(ind)	-nan(ind)	-nan(ind)
84	5	-nan(ind)	-nan(ind)	-nan(ind)	-nan(ind)
85	5	-nan(ind)	-nan(ind)	-nan(ind)	-nan(ind)
86	5	-nan(ind)	-nan(ind)	-nan(ind)	-nan(ind)
87	5	-nan(ind)	-nan(ind)	-nan(ind)	-nan(ind)
88	5	-nan(ind)	-nan(ind)	-nan(ind)	-nan(ind)
89	5	-nan(ind)	-nan(ind)	-nan(ind)	-nan(ind)
90	5	-nan(ind)	-nan(ind)	-nan(ind)	-nan(ind)
91	5	-nan(ind)	-nan(ind)	-nan(ind)	-nan(ind)
92	5	-nan(ind)	-nan(ind)	-nan(ind)	-nan(ind)
93	5	-nan(ind)	-nan(ind)	-nan(ind)	-nan(ind)
94	5	-nan(ind)	-nan(ind)	-nan(ind)	-nan(ind)
95	5	-nan(ind)	-nan(ind)	-nan(ind)	-nan(ind)
96	5	-nan(ind)	-nan(ind)	-nan(ind)	-nan(ind)
97	5	-nan(ind)	-nan(ind)	-nan(ind)	-nan(ind)
98	5	-nan(ind)	-nan(ind)	-nan(ind)	-nan(ind)
99	5	-nan(ind)	-nan(ind)	-nan(ind)	-nan(ind)
100	5	-nan(ind)	-nan(ind)	-nan(ind)	-nan(ind)
0	6	-nan(ind)	-nan(ind)	-nan(ind)	-nan(ind)
1	6	-nan(ind)	-nan(ind)	-nan(ind)	-nan(ind)
2	6	-nan(ind)	-nan(ind)	-nan(ind)	-nan(ind)
3	6	-nan(ind)	-nan(ind)	-nan(ind)	-nan(ind)
4	6	-nan(ind)	-nan(ind)	-nan(ind)	-nan(ind)
5	6	-nan(ind)	-nan(ind)	-nan(ind)	-nan(ind)
6	6	-nan(ind)	-nan(ind)	-nan(ind)	-nan(ind)
7	6	-nan(ind)	-nan(ind)	-nan(ind)	-nan(ind)
8	6	-nan(ind)	-nan(ind)	-nan(ind)	-nan(ind)
9	6	-nan(ind)	-nan(ind)	-nan(ind)	-nan(ind)
10	6	-nan(ind)	-nan(ind)	-nan(ind)	-nan(ind)
11	6	-nan(ind)	-nan(ind)	-nan(ind)	-nan(ind)
12	6	-nan(ind)	-nan(ind)	-nan(ind)	-nan(ind)
13	6	-nan(ind)	-nan(ind)	-nan(ind)	-nan(ind)
14	6	-nan(ind)	-nan(ind)	-nan(ind)	-nan(ind)
15	6	-nan(ind)	-nan(ind)	-nan(ind)	-nan(ind)
16	6	-nan(ind)	-nan(ind)	-nan(ind)	-nan(ind)
17	6	-nan(ind)	-nan(ind)	-nan(ind)	-nan(ind)
18	6	-nan(ind)	-nan(ind)	-nan(ind)	-nan(ind)
19	6	-nan(ind)	-nan(ind)	-nan(ind)	-nan(ind)
20	6	-nan(ind)	-nan(ind)	-nan(ind)	-nan(ind)
21	6	-nan(ind)	-nan(ind)	-nan(ind)	-nan(ind)
22	6	-nan(ind)	-nan(ind)	-nan(ind)	-nan(ind)
23	6	-nan(ind)	-nan(ind)	-nan(ind)	-nan(ind)
24	6	-nan(ind)	-nan(ind)	-nan(ind)	-nan(ind)
25	6	-nan(ind)	-nan(ind)	-nan(ind)	-nan(ind)
26	6	-nan(ind)	-nan(ind)	-nan(ind)	-nan(ind)
27	6	-nan(ind)	-nan(ind)	-nan(ind)	-nan(ind)
28	6	-nan(ind)	-nan(ind)	-nan(ind)	-nan(ind)
29	6	-nan(ind)	-nan(ind)	-nan(ind)	-nan(ind)
30	6	-nan(ind)	-nan(ind)	-nan(ind)	-nan(ind)
31	6	-nan(ind)	-nan(ind)	-nan(ind)	-nan(ind)
32	6	-nan(ind)	-nan(ind)	-nan(ind)	-nan(ind)
33	6	-nan(ind)	-nan(ind)	-nan(ind)	-nan(ind)
34	6	-nan(ind)	-nan(ind)	-nan(ind)	-nan(ind)
35	6	-nan(ind)	-nan(ind)	-nan(ind)	-nan(ind)
36	6	-nan(ind)	-nan(ind)	-nan(ind)	-nan(ind)
37	6	-nan(ind)	-nan(ind)	-nan(ind)	-nan(ind)
38	6	-nan(ind)	-nan(ind)	-nan(ind)	-nan(ind)
39	6	-nan(ind)	-nan(ind)	-nan(ind)	-nan(ind)
40	6	-nan(ind)	-nan(ind)	-nan(ind)	-nan(ind)
41	6	-nan(ind)	-nan(ind)	-nan(ind)	-nan(ind)
42	6	-nan(ind)	-nan(ind)	-nan(ind)	-nan(ind)
43	6	-nan(ind)	-nan(ind)	-nan(ind)	-nan(ind)
44	6	-nan(ind)	-nan(ind)	-nan(ind)	-nan(ind)
45	6	-nan(ind)	-nan(ind)	-nan(ind)	-nan(ind)
46	6	-nan(ind)	-nan(ind)	-nan(ind)	-nan(ind)
47	6	-nan(ind)	-nan(ind)	-nan(ind)	-nan(ind)
48	6	-nan(ind)	-nan(ind)	-nan(ind)	-nan(ind)
49	6	-nan(ind)	-nan(ind)	-nan(ind)	-nan(ind)
50	6	-nan(ind)	-nan(ind)	-nan(ind)	-nan(ind)
51	6	-nan(ind)	-nan(ind)	-nan(ind)	-nan(ind)
52	6	-nan(ind)	-nan(ind)	-nan(ind)	-nan(ind)
53	6	-nan(ind)	-nan(ind)	-nan(ind)	-nan(ind)
54	6	-nan(ind)	-nan(ind)	-nan(ind)	-nan(ind)
55	6	-nan(ind)	-nan(ind)	-nan(ind)	-nan(ind)
56	6	-nan(ind)	-nan(ind)	-nan(ind)	-nan(ind)
57	6	-nan(ind)	-nan(ind)	-nan(ind)	-nan(ind)
58	6	-nan(ind)	-nan(ind)	-nan(ind)	-nan(ind)
59	6	-nan(ind)	-nan(ind)	-nan(ind)	-nan(ind)