TITLE = "Data"
variables = X,Y,U,V,Velocity,T
Zone t="data"
I=101,J=101,F=POINT
0	0	-2.04577e-05	-3.06196e-05	3.68249e-05	0.999979
1	0	3.99045e-06	-4.41581e-05	4.43381e-05	0.932079
2	0	-1.60436e-05	-4.13617e-05	4.43643e-05	0.865767
3	0	-4.1848e-05	-4.48725e-05	6.1358e-05	0.800861
4	0	-6.81708e-05	-4.85147e-05	8.36716e-05	0.738305
5	0	-8.96582e-05	-5.6574e-05	0.000106015	0.679129
6	0	-0.000106663	-6.36321e-05	0.000124201	0.624208
7	0	-0.000118606	-7.2855e-05	0.000139195	0.57414
8	0	-0.000126206	-8.09328e-05	0.000149927	0.529227
9	0	-0.000130114	-8.95193e-05	0.000157935	0.489491
10	0	-0.000131005	-9.70553e-05	0.00016304	0.454738
11	0	-0.000129667	-0.000104531	0.000166554	0.424616
12	0	-0.000126524	-0.000111076	0.000168363	0.398689
13	0	-0.000122187	-0.000117187	0.0001693	0.37648
14	0	-0.000117058	-0.000122605	0.000169513	0.357517
15	0	-0.000111275	-0.000127536	0.000169256	0.341349
16	0	-0.000105231	-0.000131829	0.000168678	0.32757
17	0	-9.91896e-05	-0.000135693	0.000168081	0.315816
18	0	-9.34838e-05	-0.000139102	0.000167597	0.305771
19	0	-8.77881e-05	-0.000141991	0.000166937	0.297165
20	0	-8.22987e-05	-0.000144534	0.000166322	0.289769
21	0	-7.72488e-05	-0.000146802	0.000165886	0.283387
22	0	-7.25466e-05	-0.000148762	0.000165509	0.277858
23	0	-6.83087e-05	-0.000150536	0.000165309	0.273044
24	0	-6.43936e-05	-0.000152067	0.000165139	0.268832
25	0	-6.09055e-05	-0.000153335	0.000164988	0.265127
26	0	-5.78048e-05	-0.000154434	0.000164898	0.261848
27	0	-5.50244e-05	-0.000155441	0.000164893	0.258931
28	0	-5.25617e-05	-0.000156315	0.000164915	0.256317
29	0	-5.04466e-05	-0.000157158	0.000165056	0.253962
30	0	-4.87113e-05	-0.000157806	0.000165153	0.251824
31	0	-4.71597e-05	-0.000158384	0.000165256	0.24987
32	0	-4.58763e-05	-0.000158902	0.000165392	0.248071
33	0	-4.4774e-05	-0.000159379	0.000165549	0.246404
34	0	-4.40317e-05	-0.000159753	0.00016571	0.244847
35	0	-4.35154e-05	-0.000160116	0.000165923	0.243381
36	0	-4.31554e-05	-0.000160376	0.000166081	0.24199
37	0	-4.29915e-05	-0.000160674	0.000166326	0.24066
38	0	-4.30485e-05	-0.000160929	0.000166588	0.23938
39	0	-4.3262e-05	-0.000161158	0.000166863	0.238137
40	0	-4.37187e-05	-0.00016144	0.000167255	0.236921
41	0	-4.43094e-05	-0.000161594	0.000167559	0.235724
42	0	-4.51385e-05	-0.000161758	0.000167938	0.234536
43	0	-4.61711e-05	-0.000161951	0.000168404	0.233351
44	0	-4.73402e-05	-0.000162162	0.000168931	0.23216
45	0	-4.87253e-05	-0.000162261	0.000169419	0.230957
46	0	-5.0242e-05	-0.000162447	0.00017004	0.229734
47	0	-5.20367e-05	-0.000162738	0.000170855	0.228487
48	0	-5.41491e-05	-0.000162939	0.000171701	0.227209
49	0	-5.63061e-05	-0.000163135	0.000172578	0.225895
50	0	-5.87139e-05	-0.000163373	0.000173603	0.224538
51	0	-6.14419e-05	-0.000163594	0.000174751	0.223134
52	0	-6.42021e-05	-0.00016402	0.000176138	0.221678
53	0	-6.73074e-05	-0.000164435	0.000177677	0.220165
54	0	-7.0718e-05	-0.000164841	0.00017937	0.218589
55	0	-7.42551e-05	-0.00016536	0.000181267	0.216947
56	0	-7.79535e-05	-0.00016595	0.000183347	0.215233
57	0	-8.19225e-05	-0.000166568	0.000185624	0.213444
58	0	-8.61496e-05	-0.000167424	0.000188288	0.211576
59	0	-9.05355e-05	-0.000168394	0.000191189	0.209623
60	0	-9.51348e-05	-0.000169344	0.000194237	0.207582
61	0	-0.000100049	-0.000170456	0.000197649	0.205448
62	0	-0.000105207	-0.000171771	0.000201429	0.203218
63	0	-0.000110357	-0.000173232	0.000205397	0.200887
64	0	-0.000115654	-0.000174899	0.000209679	0.198453
65	0	-0.000121106	-0.000176732	0.000214245	0.19591
66	0	-0.000126589	-0.000178819	0.000219091	0.193254
67	0	-0.000132153	-0.000181076	0.000224172	0.190482
68	0	-0.000137642	-0.000183641	0.000229499	0.187589
69	0	-0.000142846	-0.000186581	0.000234984	0.184571
70	0	-0.000147963	-0.000189652	0.000240543	0.181424
71	0	-0.000152722	-0.000192962	0.000246086	0.178143
72	0	-0.000157091	-0.000196685	0.00025172	0.174723
73	0	-0.000161116	-0.000200649	0.000257329	0.171159
74	0	-0.000164566	-0.000204978	0.000262865	0.167446
75	0	-0.000167443	-0.000209453	0.000268156	0.163581
76	0	-0.000169459	-0.000214227	0.000273148	0.159555
77	0	-0.000170414	-0.000219188	0.000277641	0.155366
78	0	-0.000170441	-0.000224462	0.000281839	0.151005
79	0	-0.000169305	-0.000229876	0.000285494	0.146469
80	0	-0.000167083	-0.000235471	0.000288728	0.14175
81	0	-0.00016377	-0.000240992	0.000291372	0.136843
82	0	-0.000159122	-0.000246637	0.000293512	0.13174
83	0	-0.000153235	-0.000252219	0.00029512	0.126436
84	0	-0.000146039	-0.000257628	0.000296141	0.120922
85	0	-0.000137545	-0.000262836	0.00029665	0.115193
86	0	-0.000127897	-0.000267872	0.000296839	0.10924
87	0	-0.000117282	-0.000272541	0.000296705	0.103056
88	0	-0.000105856	-0.000276707	0.000296264	0.096633
89	0	-9.37798e-05	-0.000280481	0.000295743	0.0899637
90	0	-8.11211e-05	-0.000283811	0.000295177	0.0830405
91	0	-6.81599e-05	-0.000286461	0.000294458	0.0758564
92	0	-5.55092e-05	-0.000288807	0.000294093	0.0684062
93	0	-4.39282e-05	-0.000290018	0.000293326	0.060686
94	0	-3.21365e-05	-0.000291864	0.000293628	0.0526965
95	0	-2.18188e-05	-0.000290512	0.00029133	0.0444403
96	0	-1.07891e-05	-0.00029459	0.000294787	0.0359311
97	0	3.57072e-06	-0.000289769	0.000289791	0.0271884
98	0	-1.77168e-06	-0.000286481	0.000286486	0.0182491
99	0	-1.33865e-05	-0.000299776	0.000300075	0.00916107
100	0	0.000157927	-0.000151333	0.00021873	0
0	1	-5.25702e-05	-1.16657e-05	5.3849e-05	0.999984
1	1	-2.50833e-05	1.22624e-05	2.79202e-05	0.932079
2	1	-0.000145679	6.23276e-05	0.000158453	0.865767
3	1	-0.000311731	6.25826e-05	0.000317951	0.800861
4	1	-0.000488857	6.72462e-05	0.00049346	0.738305
5	1	-0.000654617	5.62485e-05	0.000657029	0.679129
6	1	-0.000793672	4.76717e-05	0.000795102	0.624208
7	1	-0.000903059	3.41281e-05	0.000903704	0.57414
8	1	-0.000981594	2.45276e-05	0.000981901	0.529227
9	1	-0.00103201	1.40864e-05	0.00103211	0.489491
10	1	-0.00105783	6.78602e-06	0.00105785	0.454738
11	1	-0.00106365	-3.64852e-07	0.00106365	0.424616
12	1	-0.00105299	-4.87445e-06	0.001053	0.398689
13	1	-0.00103028	-8.61687e-06	0.00103032	0.37648
14	1	-0.00099837	-1.08576e-05	0.000998429	0.357517
15	1	-0.000960266	-1.24754e-05	0.000960347	0.341349
16	1	-0.000918192	-1.31228e-05	0.000918286	0.32757
17	1	-0.000874221	-1.33011e-05	0.000874322	0.315816
18	1	-0.000830078	-1.28493e-05	0.000830177	0.305771
19	1	-0.000786471	-1.19607e-05	0.000786562	0.297165
20	1	-0.00074424	-1.09133e-05	0.00074432	0.289769
21	1	-0.00070422	-9.69978e-06	0.000704287	0.283387
22	1	-0.000666756	-8.40687e-06	0.000666809	0.277858
23	1	-0.000632055	-7.13882e-06	0.000632095	0.273044
24	1	-0.000600261	-5.70952e-06	0.000600288	0.268832
25	1	-0.000571394	-4.48123e-06	0.000571411	0.265127
26	1	-0.000545565	-3.13138e-06	0.000545574	0.261848
27	1	-0.000522473	-1.92298e-06	0.000522477	0.258931
28	1	-0.000502032	-8.46108e-07	0.000502033	0.256317
29	1	-0.000484438	1.68725e-07	0.000484438	0.253962
30	1	-0.00046932	1.16618e-06	0.000469322	0.251824
31	1	-0.0004566	2.19836e-06	0.000456605	0.24987
32	1	-0.00044618	3.13129e-06	0.000446191	0.248071
33	1	-0.000437782	4.00715e-06	0.0004378	0.246404
34	1	-0.000431504	4.80113e-06	0.00043153	0.244847
35	1	-0.000427431	5.70675e-06	0.000427469	0.243381
36	1	-0.000425227	6.62975e-06	0.000425278	0.24199
37	1	-0.000424817	7.36168e-06	0.00042488	0.24066
38	1	-0.000426218	8.25986e-06	0.000426298	0.23938
39	1	-0.000429525	9.06871e-06	0.00042962	0.238137
40	1	-0.000434568	9.69892e-06	0.000434676	0.236921
41	1	-0.000441312	1.04805e-05	0.000441436	0.235724
42	1	-0.000449821	1.11727e-05	0.00044996	0.234536
43	1	-0.000460165	1.18823e-05	0.000460318	0.233351
44	1	-0.000472339	1.2644e-05	0.000472509	0.23216
45	1	-0.000486216	1.33437e-05	0.000486399	0.230957
46	1	-0.000501934	1.41575e-05	0.000502133	0.229734
47	1	-0.000519507	1.4815e-05	0.000519718	0.228487
48	1	-0.00053904	1.55816e-05	0.000539265	0.227209
49	1	-0.000560373	1.64029e-05	0.000560613	0.225895
50	1	-0.000583612	1.73283e-05	0.00058387	0.224538
51	1	-0.000608884	1.82091e-05	0.000609157	0.223134
52	1	-0.000636106	1.90774e-05	0.000636392	0.221678
53	1	-0.000665248	1.97969e-05	0.000665542	0.220165
54	1	-0.000696605	2.06926e-05	0.000696912	0.218589
55	1	-0.000729758	2.16626e-05	0.000730079	0.216947
56	1	-0.000764766	2.25582e-05	0.000765099	0.215233
57	1	-0.000801791	2.33918e-05	0.000802132	0.213444
58	1	-0.00084073	2.40367e-05	0.000841074	0.211576
59	1	-0.000881412	2.47685e-05	0.00088176	0.209623
60	1	-0.000923627	2.54333e-05	0.000923977	0.207582
61	1	-0.000967508	2.60137e-05	0.000967858	0.205448
62	1	-0.00101262	2.66015e-05	0.00101297	0.203218
63	1	-0.00105878	2.71421e-05	0.00105912	0.200887
64	1	-0.00110557	2.74346e-05	0.00110591	0.198453
65	1	-0.00115282	2.76303e-05	0.00115315	0.19591
66	1	-0.00120003	2.7625e-05	0.00120034	0.193254
67	1	-0.00124677	2.74584e-05	0.00124707	0.190482
68	1	-0.0012924	2.70561e-05	0.00129268	0.187589
69	1	-0.00133622	2.62742e-05	0.00133648	0.184571
70	1	-0.00137774	2.53335e-05	0.00137797	0.181424
71	1	-0.00141612	2.40554e-05	0.00141632	0.178143
72	1	-0.00145065	2.24871e-05	0.00145083	0.174723
73	1	-0.00148062	2.04947e-05	0.00148076	0.171159
74	1	-0.00150501	1.82816e-05	0.00150512	0.167446
75	1	-0.00152325	1.55848e-05	0.00152333	0.163581
76	1	-0.00153401	1.2779e-05	0.00153406	0.159555
77	1	-0.00153686	9.52944e-06	0.00153689	0.155366
78	1	-0.00153066	6.00223e-06	0.00153068	0.151005
79	1	-0.00151503	2.1652e-06	0.00151503	0.146469
80	1	-0.00148943	-1.8328e-06	0.00148943	0.14175
81	1	-0.00145367	-5.9223e-06	0.00145368	0.136843
82	1	-0.00140732	-1.02199e-05	0.00140736	0.13174
83	1	-0.00135029	-1.42642e-05	0.00135037	0.126436
84	1	-0.00128312	-1.82066e-05	0.00128325	0.120922
85	1	-0.00120589	-2.18909e-05	0.00120609	0.115193
86	1	-0.00111993	-2.52899e-05	0.00112021	0.10924
87	1	-0.00102593	-2.79969e-05	0.00102632	0.103056
88	1	-0.000925446	-3.02749e-05	0.000925941	0.096633
89	1	-0.000820215	-3.16231e-05	0.000820824	0.0899637
90	1	-0.000711666	-3.26515e-05	0.000712414	0.0830405
91	1	-0.0006025	-3.20336e-05	0.000603351	0.0758564
92	1	-0.00049432	-3.20034e-05	0.000495355	0.0684062
93	1	-0.000388947	-2.84354e-05	0.000389985	0.060686
94	1	-0.000291222	-2.38039e-05	0.000292194	0.0526965
95	1	-0.000211177	-1.46328e-05	0.000211683	0.0444403
96	1	-0.000137638	-1.85674e-05	0.000138884	0.0359311
97	1	-6.86645e-05	-2.8817e-05	7.44663e-05	0.0271884
98	1	-4.72316e-06	8.59591e-06	9.80805e-06	0.0182491
99	1	2.05361e-05	-1.85973e-05	2.77055e-05	0.00916107
100	1	0.000293309	2.92651e-05	0.000294765	0
0	2	-6.82053e-05	-1.53951e-06	6.82227e-05	0.999984
1	2	-7.42612e-05	0.000133734	0.000152969	0.931931
2	2	-0.000339264	0.000322293	0.000467945	0.865472
3	2	-0.000739213	0.00037498	0.000828882	0.800328
4	2	-0.00117973	0.000383713	0.00124056	0.737499
5	2	-0.00159857	0.000335448	0.00163339	0.678066
6	2	-0.00195969	0.000278251	0.00197934	0.622945
7	2	-0.00224919	0.000208639	0.00225885	0.572748
8	2	-0.00246368	0.000146968	0.00246806	0.527785
9	2	-0.00260754	8.77477e-05	0.00260901	0.488069
10	2	-0.00268937	4.00487e-05	0.00268967	0.453389
11	2	-0.00271889	-8.16585e-07	0.00271889	0.423379
12	2	-0.00270616	-3.14437e-05	0.00270635	0.397586
13	2	-0.00266051	-5.53358e-05	0.00266108	0.375521
14	2	-0.00259016	-7.15431e-05	0.00259115	0.356701
15	2	-0.00250252	-8.2729e-05	0.00250389	0.340671
16	2	-0.00240351	-8.89836e-05	0.00240516	0.327019
17	2	-0.00229828	-9.17737e-05	0.00230011	0.31538
18	2	-0.00219069	-9.12336e-05	0.00219259	0.305438
19	2	-0.00208369	-8.88424e-05	0.00208558	0.296923
20	2	-0.00197971	-8.45258e-05	0.00198151	0.289605
21	2	-0.00188041	-7.93285e-05	0.00188208	0.283291
22	2	-0.0017868	-7.34167e-05	0.0017883	0.27782
23	2	-0.00169984	-6.71008e-05	0.00170117	0.273057
24	2	-0.00161982	-6.04922e-05	0.00162095	0.268888
25	2	-0.00154722	-5.38837e-05	0.00154816	0.265219
26	2	-0.00148178	-4.74293e-05	0.00148254	0.261973
27	2	-0.00142344	-4.11561e-05	0.00142403	0.259082
28	2	-0.00137203	-3.52378e-05	0.00137249	0.256492
29	2	-0.00132735	-2.94511e-05	0.00132767	0.254156
30	2	-0.00128921	-2.38978e-05	0.00128943	0.252036
31	2	-0.00125731	-1.86795e-05	0.00125745	0.250097
32	2	-0.00123141	-1.36125e-05	0.00123149	0.248312
33	2	-0.00121104	-8.82604e-06	0.00121108	0.246656
34	2	-0.00119614	-4.10657e-06	0.00119615	0.245108
35	2	-0.00118662	3.92046e-07	0.00118662	0.243651
36	2	-0.00118222	4.83605e-06	0.00118223	0.242268
37	2	-0.00118278	9.03936e-06	0.00118282	0.240945
38	2	-0.00118827	1.32129e-05	0.00118835	0.23967
39	2	-0.00119857	1.73318e-05	0.00119869	0.238432
40	2	-0.00121374	2.15078e-05	0.00121393	0.237222
41	2	-0.00123351	2.54456e-05	0.00123378	0.236028
42	2	-0.00125801	2.94007e-05	0.00125836	0.234845
43	2	-0.0012873	3.34923e-05	0.00128774	0.233663
44	2	-0.00132134	3.7492e-05	0.00132187	0.232475
45	2	-0.00136027	4.15092e-05	0.0013609	0.231274
46	2	-0.00140391	4.55809e-05	0.00140465	0.230055
47	2	-0.00145271	4.97692e-05	0.00145357	0.22881
48	2	-0.00150639	5.40915e-05	0.00150736	0.227535
49	2	-0.00156513	5.84163e-05	0.00156622	0.226222
50	2	-0.00162908	6.29469e-05	0.0016303	0.224868
51	2	-0.00169819	6.74875e-05	0.00169953	0.223466
52	2	-0.00177253	7.19784e-05	0.00177399	0.222012
53	2	-0.00185205	7.64023e-05	0.00185363	0.220501
54	2	-0.00193673	8.10569e-05	0.00193843	0.218928
55	2	-0.00202653	8.55948e-05	0.00202834	0.217289
56	2	-0.00212134	8.99962e-05	0.00212325	0.215578
57	2	-0.00222106	9.4266e-05	0.00222306	0.213793
58	2	-0.00232556	9.82404e-05	0.00232764	0.211928
59	2	-0.00243439	0.000102058	0.00243653	0.209979
60	2	-0.00254735	0.00010544	0.00254953	0.207942
61	2	-0.00266377	0.00010856	0.00266598	0.205813
62	2	-0.0027833	0.000111046	0.00278551	0.203589
63	2	-0.00290492	0.000112997	0.00290712	0.201265
64	2	-0.0030281	0.000114187	0.00303025	0.198837
65	2	-0.00315161	0.000114466	0.00315369	0.196301
66	2	-0.00327424	0.000113671	0.00327622	0.193654
67	2	-0.00339489	0.000111821	0.00339673	0.190891
68	2	-0.00351193	0.000108666	0.00351361	0.188007
69	2	-0.00362367	0.000103951	0.00362516	0.185
70	2	-0.00372852	9.77344e-05	0.0037298	0.181863
71	2	-0.00382444	8.98509e-05	0.0038255	0.178593
72	2	-0.0039096	8.01071e-05	0.00391042	0.175184
73	2	-0.00398179	6.86295e-05	0.00398238	0.171632
74	2	-0.00403875	5.51181e-05	0.00403913	0.167931
75	2	-0.00407865	3.98188e-05	0.00407884	0.164076
76	2	-0.00409884	2.27268e-05	0.00409891	0.160062
77	2	-0.00409765	3.8001e-06	0.00409766	0.155882
78	2	-0.00407319	-1.67502e-05	0.00407322	0.151531
79	2	-0.00402396	-3.83609e-05	0.00402415	0.147002
80	2	-0.00394868	-6.11236e-05	0.00394915	0.142289
81	2	-0.00384675	-8.44926e-05	0.00384768	0.137385
82	2	-0.00371761	-0.000108014	0.00371918	0.132284
83	2	-0.00356149	-0.000130976	0.00356389	0.126979
84	2	-0.00337913	-0.000153344	0.00338261	0.121462
85	2	-0.0031721	-0.000173841	0.00317686	0.115726
86	2	-0.00294265	-0.000192596	0.00294894	0.109763
87	2	-0.00269343	-0.00020843	0.00270149	0.103565
88	2	-0.00242786	-0.000221111	0.0024379	0.0971259
89	2	-0.00215045	-0.000229307	0.00216265	0.0904364
90	2	-0.00186602	-0.000234225	0.00188066	0.0834896
91	2	-0.0015792	-0.000233111	0.00159632	0.0762784
92	2	-0.001297	-0.000227509	0.0013168	0.0687975
93	2	-0.0010269	-0.000213771	0.00104892	0.0610434
94	2	-0.000771402	-0.000197694	0.000796332	0.0530162
95	2	-0.00053312	-0.000167409	0.000558787	0.0447185
96	2	-0.0003297	-0.000141534	0.000358795	0.0361637
97	2	-0.000188077	-0.000119552	0.000222858	0.0273701
98	2	-8.59321e-05	-4.74279e-05	9.81516e-05	0.0183755
99	2	-2.36179e-05	-4.24254e-05	4.85563e-05	0.00922464
100	2	0.000263912	1.81347e-05	0.000264534	0
0	3	-7.79795e-05	2.42517e-05	8.16636e-05	0.99996
1	3	-8.61297e-05	0.000319561	0.000330964	0.931481
2	3	-0.000429286	0.00073654	0.000852512	0.864713
3	3	-0.00097154	0.000898464	0.0013233	0.799084
4	3	-0.00157608	0.000911948	0.0018209	0.735702
5	3	-0.00216108	0.000817944	0.00231069	0.675735
6	3	-0.00267958	0.000683411	0.00276536	0.620175
7	3	-0.00310834	0.000527286	0.00315274	0.569679
8	3	-0.00343829	0.000377328	0.00345893	0.524571
9	3	-0.00367227	0.000238053	0.00367998	0.484852
10	3	-0.00381952	0.000120057	0.0038214	0.450289
11	3	-0.00389215	2.07772e-05	0.00389221	0.420481
12	3	-0.00390265	-5.69839e-05	0.00390307	0.394946
13	3	-0.00386378	-0.00011705	0.00386556	0.373168
14	3	-0.00378696	-0.00016012	0.00379034	0.354643
15	3	-0.00368263	-0.00018978	0.00368752	0.338901
16	3	-0.00355906	-0.000207779	0.00356512	0.325521
17	3	-0.00342374	-0.000216957	0.00343061	0.314132
18	3	-0.00328255	-0.000218582	0.00328982	0.304417
19	3	-0.00313996	-0.000214658	0.00314729	0.296103
20	3	-0.00299964	-0.000206473	0.00300674	0.288962
21	3	-0.00286447	-0.000195383	0.00287113	0.282804
22	3	-0.00273604	-0.000182266	0.0027421	0.277469
23	3	-0.002616	-0.000168018	0.00262139	0.272823
24	3	-0.00250502	-0.000153063	0.00250969	0.268756
25	3	-0.00240376	-0.000137806	0.00240771	0.265176
26	3	-0.00231241	-0.000122511	0.00231565	0.262006
27	3	-0.0022308	-0.000107838	0.00223341	0.259181
28	3	-0.00215913	-9.3447e-05	0.00216115	0.256649
29	3	-0.00209691	-7.94537e-05	0.00209841	0.254363
30	3	-0.00204392	-6.62248e-05	0.00204499	0.252286
31	3	-0.00200001	-5.33832e-05	0.00200072	0.250385
32	3	-0.0019647	-4.10726e-05	0.00196513	0.248633
33	3	-0.00193778	-2.90897e-05	0.001938	0.247007
34	3	-0.00191904	-1.76751e-05	0.00191912	0.245485
35	3	-0.00190824	-6.45663e-06	0.00190825	0.24405
36	3	-0.00190526	4.2035e-06	0.00190527	0.242688
37	3	-0.00190954	1.46899e-05	0.00190959	0.241383
38	3	-0.00192154	2.50051e-05	0.0019217	0.240125
39	3	-0.00194069	3.52507e-05	0.00194101	0.238902
40	3	-0.00196719	4.53276e-05	0.00196772	0.237705
41	3	-0.00200088	5.52854e-05	0.00200165	0.236524
42	3	-0.00204177	6.52928e-05	0.00204281	0.235352
43	3	-0.00209012	7.53398e-05	0.00209148	0.234181
44	3	-0.00214564	8.54687e-05	0.00214735	0.233003
45	3	-0.00220852	9.56001e-05	0.00221059	0.231812
46	3	-0.00227876	0.00010598	0.00228122	0.230602
47	3	-0.00235657	0.000116438	0.00235945	0.229367
48	3	-0.00244203	0.000127126	0.00244533	0.2281
49	3	-0.00253505	0.00013788	0.00253879	0.226797
50	3	-0.00263588	0.000148882	0.00264008	0.225452
51	3	-0.00274448	0.000159906	0.00274914	0.22406
52	3	-0.00286076	0.000170911	0.00286586	0.222616
53	3	-0.00298474	0.000181893	0.00299027	0.221116
54	3	-0.00311648	0.000192892	0.00312244	0.219554
55	3	-0.00325572	0.0002038	0.00326209	0.217927
56	3	-0.00340197	0.000214305	0.00340872	0.21623
57	3	-0.00355513	0.000224383	0.00356221	0.214459
58	3	-0.00371499	0.000233826	0.00372234	0.212609
59	3	-0.0038808	0.000242676	0.00388838	0.210678
60	3	-0.00405197	0.000250723	0.00405972	0.20866
61	3	-0.00422762	0.000257478	0.00423546	0.206552
62	3	-0.00440666	0.000262935	0.0044145	0.204351
63	3	-0.0045879	0.000266593	0.00459564	0.202052
64	3	-0.00477017	0.000268389	0.00477771	0.199651
65	3	-0.0049518	0.000267744	0.00495903	0.197145
66	3	-0.00513081	0.000264585	0.00513763	0.194529
67	3	-0.0053051	0.000258603	0.0053114	0.191799
68	3	-0.00547246	0.000249218	0.00547813	0.188952
69	3	-0.00563051	0.000236382	0.00563547	0.185982
70	3	-0.0057766	0.000219468	0.00578076	0.182884
71	3	-0.00590809	0.000198495	0.00591143	0.179654
72	3	-0.0060217	0.000173253	0.00602419	0.176287
73	3	-0.00611462	0.000143543	0.0061163	0.172777
74	3	-0.00618365	0.0001092	0.00618461	0.169118
75	3	-0.00622601	7.04931e-05	0.00622641	0.165304
76	3	-0.00623866	2.74067e-05	0.00623872	0.161328
77	3	-0.00621911	-1.9659e-05	0.00621914	0.157185
78	3	-0.00616484	-7.02371e-05	0.00616524	0.152867
79	3	-0.00607389	-0.000123831	0.00607515	0.148367
80	3	-0.00594501	-0.000179421	0.00594772	0.143678
81	3	-0.00577697	-0.00023613	0.0057818	0.138791
82	3	-0.00556999	-0.000293083	0.0055777	0.1337
83	3	-0.00532458	-0.000348961	0.005336	0.128397
84	3	-0.00504224	-0.000402463	0.00505827	0.122873
85	3	-0.00472508	-0.000451875	0.00474664	0.117121
86	3	-0.00437684	-0.000496035	0.00440485	0.111132
87	3	-0.00400149	-0.000533768	0.00403694	0.104898
88	3	-0.00360405	-0.000563283	0.0036478	0.0984121
89	3	-0.00319051	-0.000582804	0.0032433	0.091666
90	3	-0.0027684	-0.000592525	0.0028311	0.0846528
91	3	-0.00234518	-0.000590285	0.00241833	0.0773657
92	3	-0.00192766	-0.000574924	0.00201156	0.0697997
93	3	-0.0015262	-0.000543554	0.00162011	0.0619513
94	3	-0.00115232	-0.000502176	0.00125699	0.0538211
95	3	-0.00081221	-0.000446509	0.000926852	0.045412
96	3	-0.000509965	-0.000367944	0.000628846	0.0367368
97	3	-0.000267523	-0.000289474	0.000394162	0.0278141
98	3	-9.38597e-05	-0.000166882	0.000191466	0.018681
99	3	2.18218e-06	-5.98214e-05	5.98612e-05	0.00938076
100	3	0.000251802	3.48919e-06	0.000251826	0
0	4	-8.8833e-05	5.73739e-05	0.00010575	0.999962
1	4	-9.32595e-05	0.00053041	0.000538546	0.930986
2	4	-0.000474687	0.0012275	0.00131608	0.863836
3	4	-0.00107705	0.00153214	0.00187283	0.797674
4	4	-0.00176519	0.00156674	0.0023602	0.7337
5	4	-0.00245326	0.00143388	0.00284157	0.673153
6	4	-0.00307931	0.00121553	0.00331054	0.617089
7	4	-0.00361079	0.00095928	0.00373604	0.566224
8	4	-0.00403414	0.000703569	0.00409504	0.520904
9	4	-0.00434956	0.000465448	0.0043744	0.481129
10	4	-0.00456345	0.000257759	0.00457073	0.446646
11	4	-0.00468798	8.26332e-05	0.00468871	0.417026
12	4	-0.00473629	-5.79528e-05	0.00473664	0.391752
13	4	-0.00472321	-0.000167427	0.00472618	0.370282
14	4	-0.00466143	-0.000248215	0.00466803	0.352085
15	4	-0.00456311	-0.000305145	0.0045733	0.336674
16	4	-0.00443846	-0.000341651	0.00445159	0.323614
17	4	-0.00429644	-0.000361894	0.00431166	0.312526
18	4	-0.00414436	-0.000368799	0.00416074	0.303088
19	4	-0.00398771	-0.000365533	0.00400443	0.295025
20	4	-0.00383144	-0.000354249	0.00384779	0.288111
21	4	-0.00367905	-0.000337512	0.0036945	0.282153
22	4	-0.00353323	-0.000316745	0.0035474	0.276995
23	4	-0.00339593	-0.000293395	0.00340858	0.272505
24	4	-0.00326837	-0.000268402	0.00327937	0.268575
25	4	-0.00315149	-0.000242614	0.00316081	0.265115
26	4	-0.0030458	-0.000216742	0.0030535	0.262049
27	4	-0.00295148	-0.000191206	0.00295766	0.259317
28	4	-0.00286858	-0.000166168	0.00287339	0.256864
29	4	-0.00279694	-0.000141762	0.00280053	0.254649
30	4	-0.00273651	-0.000118318	0.00273906	0.252634
31	4	-0.0026868	-9.56734e-05	0.0026885	0.250788
32	4	-0.00264773	-7.37339e-05	0.00264876	0.249084
33	4	-0.00261903	-5.25489e-05	0.00261955	0.247501
34	4	-0.0026006	-3.20166e-05	0.0026008	0.246017
35	4	-0.00259203	-1.20552e-05	0.00259205	0.244617
36	4	-0.00259333	7.3701e-06	0.00259334	0.243285
37	4	-0.00260395	2.62519e-05	0.00260408	0.242009
38	4	-0.00262405	4.49277e-05	0.00262444	0.240776
39	4	-0.00265344	6.34794e-05	0.0026542	0.239577
40	4	-0.00269227	8.18573e-05	0.00269351	0.238402
41	4	-0.00274027	0.00010026	0.0027421	0.237242
42	4	-0.00279772	0.000118529	0.00280023	0.236089
43	4	-0.00286438	0.000136911	0.00286765	0.234937
44	4	-0.00294051	0.000155446	0.00294461	0.233777
45	4	-0.00302589	0.000174136	0.0030309	0.232604
46	4	-0.00312065	0.000193003	0.00312661	0.231412
47	4	-0.00322525	0.000212259	0.00323222	0.230194
48	4	-0.00333936	0.000231438	0.00334737	0.228946
49	4	-0.0034633	0.000251029	0.00347239	0.227661
50	4	-0.00359685	0.000270776	0.00360702	0.226336
51	4	-0.00374019	0.000290516	0.00375145	0.224964
52	4	-0.00389294	0.000310263	0.00390529	0.223542
53	4	-0.00405542	0.000329818	0.00406881	0.222065
54	4	-0.00422729	0.000349138	0.00424168	0.220528
55	4	-0.00440801	0.000368197	0.00442336	0.218929
56	4	-0.00459731	0.000386683	0.00461354	0.217261
57	4	-0.00479461	0.000403999	0.0048116	0.215522
58	4	-0.00499953	0.000420122	0.00501715	0.213708
59	4	-0.00521102	0.000435058	0.00522915	0.211815
60	4	-0.0054282	0.000448088	0.00544666	0.20984
61	4	-0.00564985	0.000458966	0.00566846	0.207778
62	4	-0.00587436	0.000467033	0.0058929	0.205627
63	4	-0.00610021	0.000471753	0.00611842	0.203382
64	4	-0.0063256	0.000472794	0.00634324	0.20104
65	4	-0.00654837	0.000469549	0.00656518	0.198596
66	4	-0.00676587	0.000461401	0.00678159	0.196048
67	4	-0.00697565	0.000448039	0.00699002	0.19339
68	4	-0.0071748	0.000428652	0.00718759	0.190617
69	4	-0.00736015	0.000402842	0.00737117	0.187726
70	4	-0.00752847	0.000369852	0.00753755	0.18471
71	4	-0.00767661	0.00032957	0.00768368	0.181564
72	4	-0.00780054	0.000281749	0.00780562	0.178282
73	4	-0.00789696	0.000226166	0.0079002	0.174858
74	4	-0.00796194	0.000162746	0.00796361	0.171283
75	4	-0.00799246	9.15924e-05	0.00799299	0.167552
76	4	-0.00798523	1.30492e-05	0.00798524	0.163655
77	4	-0.00793749	-7.19824e-05	0.00793781	0.159585
78	4	-0.00784628	-0.000162812	0.00784797	0.155333
79	4	-0.00770988	-0.000258367	0.00771421	0.15089
80	4	-0.00752689	-0.000357204	0.00753536	0.146246
81	4	-0.00729667	-0.00045743	0.007311	0.141392
82	4	-0.00701942	-0.00055738	0.00704152	0.136319
83	4	-0.00669599	-0.000654908	0.00672794	0.131016
84	4	-0.00632898	-0.000747873	0.00637301	0.125476
85	4	-0.00592127	-0.000833638	0.00597966	0.119688
86	4	-0.00547707	-0.000909865	0.00555213	0.113644
87	4	-0.00500138	-0.000973931	0.00509533	0.107336
88	4	-0.00450115	-0.001024	0.00461616	0.100755
89	4	-0.00398285	-0.00105714	0.00412076	0.0938942
90	4	-0.00345474	-0.00107145	0.00361707	0.0867477
91	4	-0.00292777	-0.00106502	0.00311546	0.0793099
92	4	-0.00241141	-0.00103701	0.00262494	0.0715769
93	4	-0.00191274	-0.000984733	0.00215135	0.0635464
94	4	-0.00144313	-0.000906468	0.0017042	0.0552203
95	4	-0.00102316	-0.000807017	0.00130313	0.0466032
96	4	-0.000661204	-0.000670824	0.000941911	0.0377082
97	4	-0.000363783	-0.000519215	0.000633974	0.0285544
98	4	-0.000147438	-0.000336995	0.000367836	0.0191822
99	4	-2.37033e-05	-0.00010941	0.000111948	0.00963421
100	4	0.000241572	3.27589e-06	0.000241594	0
0	5	-9.2275e-05	8.83421e-05	0.000127746	0.999966
1	5	-8.71055e-05	0.000748722	0.000753772	0.930577
2	5	-0.000474587	0.00175548	0.0018185	0.863064
3	5	-0.00110368	0.00221953	0.00247879	0.796453
4	5	-0.00183683	0.00229587	0.00294023	0.731977
5	5	-0.00258199	0.00213377	0.00334957	0.670908
6	5	-0.00327377	0.00183515	0.00375305	0.614365
7	5	-0.00387632	0.00147611	0.00414786	0.563116
8	5	-0.00437068	0.00110813	0.00450896	0.51754
9	5	-0.00475271	0.00076093	0.00481324	0.477649
10	5	-0.00502602	0.00045277	0.00504637	0.44318
11	5	-0.00520211	0.000190544	0.0052056	0.413684
12	5	-0.00529371	-2.33264e-05	0.00529376	0.388618
13	5	-0.00531525	-0.000192024	0.00531872	0.367411
14	5	-0.00528053	-0.000319104	0.00529016	0.349511
15	5	-0.00520244	-0.000410448	0.00521861	0.334412
16	5	-0.00509203	-0.000471489	0.00511381	0.321663
17	5	-0.00495925	-0.000507582	0.00498515	0.310876
18	5	-0.00481218	-0.000523385	0.00484056	0.301721
19	5	-0.00465745	-0.000523335	0.00468676	0.293921
20	5	-0.00450038	-0.000510928	0.00452929	0.287246
21	5	-0.00434555	-0.000489513	0.00437303	0.281506
22	5	-0.00419582	-0.000461572	0.00422113	0.276542
23	5	-0.00405397	-0.000429259	0.00407664	0.272226
24	5	-0.00392145	-0.000393996	0.00394119	0.268451
25	5	-0.00379961	-0.000357219	0.00381637	0.265128
26	5	-0.00368941	-0.000319761	0.00370324	0.262184
27	5	-0.003591	-0.000282368	0.00360209	0.259558
28	5	-0.00350473	-0.000245398	0.00351331	0.257201
29	5	-0.00343066	-0.000209231	0.00343703	0.25507
30	5	-0.00336878	-0.00017417	0.00337328	0.25313
31	5	-0.00331872	-0.000140059	0.00332168	0.25135
32	5	-0.00328078	-0.00010708	0.00328253	0.249706
33	5	-0.00325436	-7.49652e-05	0.00325522	0.248176
34	5	-0.00323973	-4.36444e-05	0.00324002	0.246741
35	5	-0.00323617	-1.30831e-05	0.0032362	0.245385
36	5	-0.00324411	1.67807e-05	0.00324415	0.244093
37	5	-0.00326275	4.60141e-05	0.00326307	0.242854
38	5	-0.00329239	7.49571e-05	0.00329325	0.241655
39	5	-0.00333297	0.000103644	0.00333458	0.240488
40	5	-0.00338445	0.000132255	0.00338703	0.239343
41	5	-0.00344674	0.000160669	0.00345049	0.238212
42	5	-0.00352003	0.000189006	0.0035251	0.237088
43	5	-0.00360412	0.000217413	0.00361067	0.235962
44	5	-0.00369925	0.000246142	0.00370743	0.23483
45	5	-0.00380548	0.000275291	0.00381543	0.233684
46	5	-0.00392244	0.000304596	0.00393425	0.232519
47	5	-0.00405084	0.000334089	0.00406459	0.23133
48	5	-0.00419026	0.000363806	0.00420603	0.230111
49	5	-0.00434088	0.000393895	0.00435871	0.228857
50	5	-0.00450269	0.000423996	0.00452261	0.227563
51	5	-0.00467561	0.000454037	0.00469761	0.226226
52	5	-0.00485918	0.000483947	0.00488322	0.224841
53	5	-0.00505355	0.000513623	0.00507958	0.223404
54	5	-0.00525824	0.000542674	0.00528617	0.221911
55	5	-0.00547269	0.000571004	0.00550239	0.220358
56	5	-0.00569632	0.000598082	0.00572763	0.218742
57	5	-0.00592843	0.000623535	0.00596114	0.217059
58	5	-0.00616808	0.000646867	0.00620191	0.215306
59	5	-0.00641431	0.000667739	0.00644897	0.213479
60	5	-0.00666577	0.000685518	0.00670093	0.211576
61	5	-0.00692068	0.000699671	0.00695596	0.209593
62	5	-0.00717744	0.000709374	0.00721241	0.207527
63	5	-0.00743398	0.000713724	0.00746817	0.205373
64	5	-0.00768783	0.000712133	0.00772074	0.20313
65	5	-0.00793667	0.000703646	0.0079678	0.200791
66	5	-0.00817723	0.000687567	0.00820609	0.198354
67	5	-0.00840683	0.000663237	0.00843295	0.195814
68	5	-0.00862179	0.000629659	0.00864475	0.193166
69	5	-0.00881899	0.000586186	0.00883845	0.190403
70	5	-0.00899427	0.00053213	0.00901	0.18752
71	5	-0.00914418	0.000466885	0.00915609	0.184511
72	5	-0.00926463	0.000390434	0.00927285	0.181366
73	5	-0.00935184	0.000302462	0.00935673	0.178078
74	5	-0.00940197	0.000203108	0.00940416	0.174639
75	5	-0.00941135	9.24663e-05	0.0094118	0.171037
76	5	-0.00937703	-2.86481e-05	0.00937708	0.167264
77	5	-0.00929599	-0.000158936	0.00929735	0.163307
78	5	-0.00916578	-0.000297405	0.0091706	0.159156
79	5	-0.00898443	-0.000441935	0.00899529	0.154798
80	5	-0.00875084	-0.000590758	0.00877076	0.15022
81	5	-0.0084647	-0.000741134	0.00849708	0.145412
82	5	-0.00812665	-0.000890443	0.00817529	0.14036
83	5	-0.00773805	-0.00103538	0.00780701	0.135053
84	5	-0.00730159	-0.00117285	0.00739518	0.129479
85	5	-0.00682116	-0.00129917	0.00694378	0.123628
86	5	-0.00630164	-0.00141091	0.00645766	0.117489
87	5	-0.00574818	-0.00150431	0.00594176	0.111055
88	5	-0.00516857	-0.00157625	0.00540358	0.104317
89	5	-0.00457122	-0.00162327	0.00485088	0.0972692
90	5	-0.00396475	-0.00164229	0.00429143	0.0899071
91	5	-0.00335853	-0.00163009	0.00373321	0.0822272
92	5	-0.00276494	-0.00158509	0.00318707	0.0742284
93	5	-0.00219728	-0.00150629	0.00266401	0.0659111
94	5	-0.0016645	-0.00138719	0.00216676	0.0572801
95	5	-0.00117938	-0.00123254	0.0017059	0.0483432
96	5	-0.000757715	-0.0010355	0.00128312	0.0391165